n -t 0 -s 0 -S DLABEL -l "ping0" -L ""
n -t 0 -s 1 -S DLABEL -l "ping1" -L ""
n -t 0 -s 2 -S DLABEL -l "ping2" -L ""
n -t 0 -s 3 -S DLABEL -l "ping3" -L ""
n -t 0 -s 4 -S DLABEL -l "ping4" -L ""
n -t 0 -s 5 -S DLABEL -l "router" -L ""
V -t * -v 1.0a5 -a 0
A -t * -n 1 -p 0 -o 0x7fffffff -c 30 -a 1
A -t * -h 1 -m 1073741823 -s 0
c -t * -i 4 -n Green
c -t * -i 5 -n Yellow
c -t * -i 2 -n Red
c -t * -i 3 -n Blue
n -t * -a 4 -s 4 -S UP -v circle -c black -i black
n -t * -a 0 -s 0 -S UP -v circle -c black -i black
n -t * -a 5 -s 5 -S UP -v circle -c black -i black
n -t * -a 1 -s 1 -S UP -v circle -c black -i black
n -t * -a 2 -s 2 -S UP -v circle -c black -i black
n -t * -a 3 -s 3 -S UP -v circle -c black -i black
l -t * -s 0 -d 5 -S UP -r 1000000 -D 0.01 -c black
l -t * -s 1 -d 5 -S UP -r 1000000 -D 0.01 -c black
l -t * -s 2 -d 5 -S UP -r 1000000 -D 0.01 -c black
l -t * -s 3 -d 5 -S UP -r 1000000 -D 0.01 -c black
l -t * -s 4 -d 5 -S UP -r 1000000 -D 0.01 -c black
+ -t 0.101 -s 2 -d 5 -p ping -e 64 -c 3 -i 0 -a 3 -x {2.0 4.0 -1 ------- null}
- -t 0.101 -s 2 -d 5 -p ping -e 64 -c 3 -i 0 -a 3 -x {2.0 4.0 -1 ------- null}
h -t 0.101 -s 2 -d 5 -p ping -e 64 -c 3 -i 0 -a 3 -x {2.0 4.0 -1 ------- null}
+ -t 0.102 -s 2 -d 5 -p ping -e 64 -c 3 -i 1 -a 3 -x {2.0 4.0 -1 ------- null}
- -t 0.102 -s 2 -d 5 -p ping -e 64 -c 3 -i 1 -a 3 -x {2.0 4.0 -1 ------- null}
h -t 0.102 -s 2 -d 5 -p ping -e 64 -c 3 -i 1 -a 3 -x {2.0 4.0 -1 ------- null}
+ -t 0.103 -s 2 -d 5 -p ping -e 64 -c 3 -i 2 -a 3 -x {2.0 4.0 -1 ------- null}
- -t 0.103 -s 2 -d 5 -p ping -e 64 -c 3 -i 2 -a 3 -x {2.0 4.0 -1 ------- null}
h -t 0.103 -s 2 -d 5 -p ping -e 64 -c 3 -i 2 -a 3 -x {2.0 4.0 -1 ------- null}
+ -t 0.104 -s 2 -d 5 -p ping -e 64 -c 3 -i 3 -a 3 -x {2.0 4.0 -1 ------- null}
- -t 0.104 -s 2 -d 5 -p ping -e 64 -c 3 -i 3 -a 3 -x {2.0 4.0 -1 ------- null}
h -t 0.104 -s 2 -d 5 -p ping -e 64 -c 3 -i 3 -a 3 -x {2.0 4.0 -1 ------- null}
+ -t 0.105 -s 2 -d 5 -p ping -e 64 -c 3 -i 4 -a 3 -x {2.0 4.0 -1 ------- null}
- -t 0.105 -s 2 -d 5 -p ping -e 64 -c 3 -i 4 -a 3 -x {2.0 4.0 -1 ------- null}
h -t 0.105 -s 2 -d 5 -p ping -e 64 -c 3 -i 4 -a 3 -x {2.0 4.0 -1 ------- null}
+ -t 0.106 -s 2 -d 5 -p ping -e 64 -c 3 -i 5 -a 3 -x {2.0 4.0 -1 ------- null}
- -t 0.106 -s 2 -d 5 -p ping -e 64 -c 3 -i 5 -a 3 -x {2.0 4.0 -1 ------- null}
h -t 0.106 -s 2 -d 5 -p ping -e 64 -c 3 -i 5 -a 3 -x {2.0 4.0 -1 ------- null}
+ -t 0.107 -s 2 -d 5 -p ping -e 64 -c 3 -i 6 -a 3 -x {2.0 4.0 -1 ------- null}
- -t 0.107 -s 2 -d 5 -p ping -e 64 -c 3 -i 6 -a 3 -x {2.0 4.0 -1 ------- null}
h -t 0.107 -s 2 -d 5 -p ping -e 64 -c 3 -i 6 -a 3 -x {2.0 4.0 -1 ------- null}
+ -t 0.108 -s 2 -d 5 -p ping -e 64 -c 3 -i 7 -a 3 -x {2.0 4.0 -1 ------- null}
- -t 0.108 -s 2 -d 5 -p ping -e 64 -c 3 -i 7 -a 3 -x {2.0 4.0 -1 ------- null}
h -t 0.108 -s 2 -d 5 -p ping -e 64 -c 3 -i 7 -a 3 -x {2.0 4.0 -1 ------- null}
+ -t 0.109 -s 2 -d 5 -p ping -e 64 -c 3 -i 8 -a 3 -x {2.0 4.0 -1 ------- null}
- -t 0.109 -s 2 -d 5 -p ping -e 64 -c 3 -i 8 -a 3 -x {2.0 4.0 -1 ------- null}
h -t 0.109 -s 2 -d 5 -p ping -e 64 -c 3 -i 8 -a 3 -x {2.0 4.0 -1 ------- null}
+ -t 0.11 -s 2 -d 5 -p ping -e 64 -c 3 -i 9 -a 3 -x {2.0 4.0 -1 ------- null}
- -t 0.11 -s 2 -d 5 -p ping -e 64 -c 3 -i 9 -a 3 -x {2.0 4.0 -1 ------- null}
h -t 0.11 -s 2 -d 5 -p ping -e 64 -c 3 -i 9 -a 3 -x {2.0 4.0 -1 ------- null}
+ -t 0.111 -s 2 -d 5 -p ping -e 64 -c 3 -i 10 -a 3 -x {2.0 4.0 -1 ------- null}
- -t 0.111 -s 2 -d 5 -p ping -e 64 -c 3 -i 10 -a 3 -x {2.0 4.0 -1 ------- null}
h -t 0.111 -s 2 -d 5 -p ping -e 64 -c 3 -i 10 -a 3 -x {2.0 4.0 -1 ------- null}
r -t 0.111512 -s 2 -d 5 -p ping -e 64 -c 3 -i 0 -a 3 -x {2.0 4.0 -1 ------- null}
+ -t 0.111512 -s 5 -d 4 -p ping -e 64 -c 3 -i 0 -a 3 -x {2.0 4.0 -1 ------- null}
- -t 0.111512 -s 5 -d 4 -p ping -e 64 -c 3 -i 0 -a 3 -x {2.0 4.0 -1 ------- null}
h -t 0.111512 -s 5 -d 4 -p ping -e 64 -c 3 -i 0 -a 3 -x {2.0 4.0 -1 ------- null}
+ -t 0.112 -s 2 -d 5 -p ping -e 64 -c 3 -i 11 -a 3 -x {2.0 4.0 -1 ------- null}
- -t 0.112 -s 2 -d 5 -p ping -e 64 -c 3 -i 11 -a 3 -x {2.0 4.0 -1 ------- null}
h -t 0.112 -s 2 -d 5 -p ping -e 64 -c 3 -i 11 -a 3 -x {2.0 4.0 -1 ------- null}
r -t 0.112512 -s 2 -d 5 -p ping -e 64 -c 3 -i 1 -a 3 -x {2.0 4.0 -1 ------- null}
+ -t 0.112512 -s 5 -d 4 -p ping -e 64 -c 3 -i 1 -a 3 -x {2.0 4.0 -1 ------- null}
- -t 0.112512 -s 5 -d 4 -p ping -e 64 -c 3 -i 1 -a 3 -x {2.0 4.0 -1 ------- null}
h -t 0.112512 -s 5 -d 4 -p ping -e 64 -c 3 -i 1 -a 3 -x {2.0 4.0 -1 ------- null}
+ -t 0.113 -s 2 -d 5 -p ping -e 64 -c 3 -i 12 -a 3 -x {2.0 4.0 -1 ------- null}
- -t 0.113 -s 2 -d 5 -p ping -e 64 -c 3 -i 12 -a 3 -x {2.0 4.0 -1 ------- null}
h -t 0.113 -s 2 -d 5 -p ping -e 64 -c 3 -i 12 -a 3 -x {2.0 4.0 -1 ------- null}
r -t 0.113512 -s 2 -d 5 -p ping -e 64 -c 3 -i 2 -a 3 -x {2.0 4.0 -1 ------- null}
+ -t 0.113512 -s 5 -d 4 -p ping -e 64 -c 3 -i 2 -a 3 -x {2.0 4.0 -1 ------- null}
- -t 0.113512 -s 5 -d 4 -p ping -e 64 -c 3 -i 2 -a 3 -x {2.0 4.0 -1 ------- null}
h -t 0.113512 -s 5 -d 4 -p ping -e 64 -c 3 -i 2 -a 3 -x {2.0 4.0 -1 ------- null}
+ -t 0.114 -s 2 -d 5 -p ping -e 64 -c 3 -i 13 -a 3 -x {2.0 4.0 -1 ------- null}
- -t 0.114 -s 2 -d 5 -p ping -e 64 -c 3 -i 13 -a 3 -x {2.0 4.0 -1 ------- null}
h -t 0.114 -s 2 -d 5 -p ping -e 64 -c 3 -i 13 -a 3 -x {2.0 4.0 -1 ------- null}
r -t 0.114512 -s 2 -d 5 -p ping -e 64 -c 3 -i 3 -a 3 -x {2.0 4.0 -1 ------- null}
+ -t 0.114512 -s 5 -d 4 -p ping -e 64 -c 3 -i 3 -a 3 -x {2.0 4.0 -1 ------- null}
- -t 0.114512 -s 5 -d 4 -p ping -e 64 -c 3 -i 3 -a 3 -x {2.0 4.0 -1 ------- null}
h -t 0.114512 -s 5 -d 4 -p ping -e 64 -c 3 -i 3 -a 3 -x {2.0 4.0 -1 ------- null}
+ -t 0.115 -s 2 -d 5 -p ping -e 64 -c 3 -i 14 -a 3 -x {2.0 4.0 -1 ------- null}
- -t 0.115 -s 2 -d 5 -p ping -e 64 -c 3 -i 14 -a 3 -x {2.0 4.0 -1 ------- null}
h -t 0.115 -s 2 -d 5 -p ping -e 64 -c 3 -i 14 -a 3 -x {2.0 4.0 -1 ------- null}
r -t 0.115512 -s 2 -d 5 -p ping -e 64 -c 3 -i 4 -a 3 -x {2.0 4.0 -1 ------- null}
+ -t 0.115512 -s 5 -d 4 -p ping -e 64 -c 3 -i 4 -a 3 -x {2.0 4.0 -1 ------- null}
- -t 0.115512 -s 5 -d 4 -p ping -e 64 -c 3 -i 4 -a 3 -x {2.0 4.0 -1 ------- null}
h -t 0.115512 -s 5 -d 4 -p ping -e 64 -c 3 -i 4 -a 3 -x {2.0 4.0 -1 ------- null}
+ -t 0.116 -s 2 -d 5 -p ping -e 64 -c 3 -i 15 -a 3 -x {2.0 4.0 -1 ------- null}
- -t 0.116 -s 2 -d 5 -p ping -e 64 -c 3 -i 15 -a 3 -x {2.0 4.0 -1 ------- null}
h -t 0.116 -s 2 -d 5 -p ping -e 64 -c 3 -i 15 -a 3 -x {2.0 4.0 -1 ------- null}
r -t 0.116512 -s 2 -d 5 -p ping -e 64 -c 3 -i 5 -a 3 -x {2.0 4.0 -1 ------- null}
+ -t 0.116512 -s 5 -d 4 -p ping -e 64 -c 3 -i 5 -a 3 -x {2.0 4.0 -1 ------- null}
- -t 0.116512 -s 5 -d 4 -p ping -e 64 -c 3 -i 5 -a 3 -x {2.0 4.0 -1 ------- null}
h -t 0.116512 -s 5 -d 4 -p ping -e 64 -c 3 -i 5 -a 3 -x {2.0 4.0 -1 ------- null}
+ -t 0.117 -s 2 -d 5 -p ping -e 64 -c 3 -i 16 -a 3 -x {2.0 4.0 -1 ------- null}
- -t 0.117 -s 2 -d 5 -p ping -e 64 -c 3 -i 16 -a 3 -x {2.0 4.0 -1 ------- null}
h -t 0.117 -s 2 -d 5 -p ping -e 64 -c 3 -i 16 -a 3 -x {2.0 4.0 -1 ------- null}
r -t 0.117512 -s 2 -d 5 -p ping -e 64 -c 3 -i 6 -a 3 -x {2.0 4.0 -1 ------- null}
+ -t 0.117512 -s 5 -d 4 -p ping -e 64 -c 3 -i 6 -a 3 -x {2.0 4.0 -1 ------- null}
- -t 0.117512 -s 5 -d 4 -p ping -e 64 -c 3 -i 6 -a 3 -x {2.0 4.0 -1 ------- null}
h -t 0.117512 -s 5 -d 4 -p ping -e 64 -c 3 -i 6 -a 3 -x {2.0 4.0 -1 ------- null}
+ -t 0.118 -s 2 -d 5 -p ping -e 64 -c 3 -i 17 -a 3 -x {2.0 4.0 -1 ------- null}
- -t 0.118 -s 2 -d 5 -p ping -e 64 -c 3 -i 17 -a 3 -x {2.0 4.0 -1 ------- null}
h -t 0.118 -s 2 -d 5 -p ping -e 64 -c 3 -i 17 -a 3 -x {2.0 4.0 -1 ------- null}
r -t 0.118512 -s 2 -d 5 -p ping -e 64 -c 3 -i 7 -a 3 -x {2.0 4.0 -1 ------- null}
+ -t 0.118512 -s 5 -d 4 -p ping -e 64 -c 3 -i 7 -a 3 -x {2.0 4.0 -1 ------- null}
- -t 0.118512 -s 5 -d 4 -p ping -e 64 -c 3 -i 7 -a 3 -x {2.0 4.0 -1 ------- null}
h -t 0.118512 -s 5 -d 4 -p ping -e 64 -c 3 -i 7 -a 3 -x {2.0 4.0 -1 ------- null}
+ -t 0.119 -s 2 -d 5 -p ping -e 64 -c 3 -i 18 -a 3 -x {2.0 4.0 -1 ------- null}
- -t 0.119 -s 2 -d 5 -p ping -e 64 -c 3 -i 18 -a 3 -x {2.0 4.0 -1 ------- null}
h -t 0.119 -s 2 -d 5 -p ping -e 64 -c 3 -i 18 -a 3 -x {2.0 4.0 -1 ------- null}
r -t 0.119512 -s 2 -d 5 -p ping -e 64 -c 3 -i 8 -a 3 -x {2.0 4.0 -1 ------- null}
+ -t 0.119512 -s 5 -d 4 -p ping -e 64 -c 3 -i 8 -a 3 -x {2.0 4.0 -1 ------- null}
- -t 0.119512 -s 5 -d 4 -p ping -e 64 -c 3 -i 8 -a 3 -x {2.0 4.0 -1 ------- null}
h -t 0.119512 -s 5 -d 4 -p ping -e 64 -c 3 -i 8 -a 3 -x {2.0 4.0 -1 ------- null}
+ -t 0.12 -s 2 -d 5 -p ping -e 64 -c 3 -i 19 -a 3 -x {2.0 4.0 -1 ------- null}
- -t 0.12 -s 2 -d 5 -p ping -e 64 -c 3 -i 19 -a 3 -x {2.0 4.0 -1 ------- null}
h -t 0.12 -s 2 -d 5 -p ping -e 64 -c 3 -i 19 -a 3 -x {2.0 4.0 -1 ------- null}
r -t 0.120512 -s 2 -d 5 -p ping -e 64 -c 3 -i 9 -a 3 -x {2.0 4.0 -1 ------- null}
+ -t 0.120512 -s 5 -d 4 -p ping -e 64 -c 3 -i 9 -a 3 -x {2.0 4.0 -1 ------- null}
- -t 0.120512 -s 5 -d 4 -p ping -e 64 -c 3 -i 9 -a 3 -x {2.0 4.0 -1 ------- null}
h -t 0.120512 -s 5 -d 4 -p ping -e 64 -c 3 -i 9 -a 3 -x {2.0 4.0 -1 ------- null}
+ -t 0.121 -s 2 -d 5 -p ping -e 64 -c 3 -i 20 -a 3 -x {2.0 4.0 -1 ------- null}
- -t 0.121 -s 2 -d 5 -p ping -e 64 -c 3 -i 20 -a 3 -x {2.0 4.0 -1 ------- null}
h -t 0.121 -s 2 -d 5 -p ping -e 64 -c 3 -i 20 -a 3 -x {2.0 4.0 -1 ------- null}
r -t 0.121512 -s 2 -d 5 -p ping -e 64 -c 3 -i 10 -a 3 -x {2.0 4.0 -1 ------- null}
+ -t 0.121512 -s 5 -d 4 -p ping -e 64 -c 3 -i 10 -a 3 -x {2.0 4.0 -1 ------- null}
- -t 0.121512 -s 5 -d 4 -p ping -e 64 -c 3 -i 10 -a 3 -x {2.0 4.0 -1 ------- null}
h -t 0.121512 -s 5 -d 4 -p ping -e 64 -c 3 -i 10 -a 3 -x {2.0 4.0 -1 ------- null}
+ -t 0.122 -s 2 -d 5 -p ping -e 64 -c 3 -i 21 -a 3 -x {2.0 4.0 -1 ------- null}
- -t 0.122 -s 2 -d 5 -p ping -e 64 -c 3 -i 21 -a 3 -x {2.0 4.0 -1 ------- null}
h -t 0.122 -s 2 -d 5 -p ping -e 64 -c 3 -i 21 -a 3 -x {2.0 4.0 -1 ------- null}
r -t 0.122024 -s 5 -d 4 -p ping -e 64 -c 3 -i 0 -a 3 -x {2.0 4.0 -1 ------- null}
+ -t 0.122024 -s 4 -d 5 -p ping -e 64 -c 5 -i 22 -a 5 -x {4.0 2.0 -1 ------- null}
- -t 0.122024 -s 4 -d 5 -p ping -e 64 -c 5 -i 22 -a 5 -x {4.0 2.0 -1 ------- null}
h -t 0.122024 -s 4 -d 5 -p ping -e 64 -c 5 -i 22 -a 5 -x {4.0 2.0 -1 ------- null}
r -t 0.122512 -s 2 -d 5 -p ping -e 64 -c 3 -i 11 -a 3 -x {2.0 4.0 -1 ------- null}
+ -t 0.122512 -s 5 -d 4 -p ping -e 64 -c 3 -i 11 -a 3 -x {2.0 4.0 -1 ------- null}
- -t 0.122512 -s 5 -d 4 -p ping -e 64 -c 3 -i 11 -a 3 -x {2.0 4.0 -1 ------- null}
h -t 0.122512 -s 5 -d 4 -p ping -e 64 -c 3 -i 11 -a 3 -x {2.0 4.0 -1 ------- null}
+ -t 0.123 -s 2 -d 5 -p ping -e 64 -c 3 -i 23 -a 3 -x {2.0 4.0 -1 ------- null}
- -t 0.123 -s 2 -d 5 -p ping -e 64 -c 3 -i 23 -a 3 -x {2.0 4.0 -1 ------- null}
h -t 0.123 -s 2 -d 5 -p ping -e 64 -c 3 -i 23 -a 3 -x {2.0 4.0 -1 ------- null}
r -t 0.123024 -s 5 -d 4 -p ping -e 64 -c 3 -i 1 -a 3 -x {2.0 4.0 -1 ------- null}
+ -t 0.123024 -s 4 -d 5 -p ping -e 64 -c 5 -i 24 -a 5 -x {4.0 2.0 -1 ------- null}
- -t 0.123024 -s 4 -d 5 -p ping -e 64 -c 5 -i 24 -a 5 -x {4.0 2.0 -1 ------- null}
h -t 0.123024 -s 4 -d 5 -p ping -e 64 -c 5 -i 24 -a 5 -x {4.0 2.0 -1 ------- null}
r -t 0.123512 -s 2 -d 5 -p ping -e 64 -c 3 -i 12 -a 3 -x {2.0 4.0 -1 ------- null}
+ -t 0.123512 -s 5 -d 4 -p ping -e 64 -c 3 -i 12 -a 3 -x {2.0 4.0 -1 ------- null}
- -t 0.123512 -s 5 -d 4 -p ping -e 64 -c 3 -i 12 -a 3 -x {2.0 4.0 -1 ------- null}
h -t 0.123512 -s 5 -d 4 -p ping -e 64 -c 3 -i 12 -a 3 -x {2.0 4.0 -1 ------- null}
+ -t 0.124 -s 2 -d 5 -p ping -e 64 -c 3 -i 25 -a 3 -x {2.0 4.0 -1 ------- null}
- -t 0.124 -s 2 -d 5 -p ping -e 64 -c 3 -i 25 -a 3 -x {2.0 4.0 -1 ------- null}
h -t 0.124 -s 2 -d 5 -p ping -e 64 -c 3 -i 25 -a 3 -x {2.0 4.0 -1 ------- null}
r -t 0.124024 -s 5 -d 4 -p ping -e 64 -c 3 -i 2 -a 3 -x {2.0 4.0 -1 ------- null}
+ -t 0.124024 -s 4 -d 5 -p ping -e 64 -c 5 -i 26 -a 5 -x {4.0 2.0 -1 ------- null}
- -t 0.124024 -s 4 -d 5 -p ping -e 64 -c 5 -i 26 -a 5 -x {4.0 2.0 -1 ------- null}
h -t 0.124024 -s 4 -d 5 -p ping -e 64 -c 5 -i 26 -a 5 -x {4.0 2.0 -1 ------- null}
r -t 0.124512 -s 2 -d 5 -p ping -e 64 -c 3 -i 13 -a 3 -x {2.0 4.0 -1 ------- null}
+ -t 0.124512 -s 5 -d 4 -p ping -e 64 -c 3 -i 13 -a 3 -x {2.0 4.0 -1 ------- null}
- -t 0.124512 -s 5 -d 4 -p ping -e 64 -c 3 -i 13 -a 3 -x {2.0 4.0 -1 ------- null}
h -t 0.124512 -s 5 -d 4 -p ping -e 64 -c 3 -i 13 -a 3 -x {2.0 4.0 -1 ------- null}
+ -t 0.125 -s 2 -d 5 -p ping -e 64 -c 3 -i 27 -a 3 -x {2.0 4.0 -1 ------- null}
- -t 0.125 -s 2 -d 5 -p ping -e 64 -c 3 -i 27 -a 3 -x {2.0 4.0 -1 ------- null}
h -t 0.125 -s 2 -d 5 -p ping -e 64 -c 3 -i 27 -a 3 -x {2.0 4.0 -1 ------- null}
r -t 0.125024 -s 5 -d 4 -p ping -e 64 -c 3 -i 3 -a 3 -x {2.0 4.0 -1 ------- null}
+ -t 0.125024 -s 4 -d 5 -p ping -e 64 -c 5 -i 28 -a 5 -x {4.0 2.0 -1 ------- null}
- -t 0.125024 -s 4 -d 5 -p ping -e 64 -c 5 -i 28 -a 5 -x {4.0 2.0 -1 ------- null}
h -t 0.125024 -s 4 -d 5 -p ping -e 64 -c 5 -i 28 -a 5 -x {4.0 2.0 -1 ------- null}
r -t 0.125512 -s 2 -d 5 -p ping -e 64 -c 3 -i 14 -a 3 -x {2.0 4.0 -1 ------- null}
+ -t 0.125512 -s 5 -d 4 -p ping -e 64 -c 3 -i 14 -a 3 -x {2.0 4.0 -1 ------- null}
- -t 0.125512 -s 5 -d 4 -p ping -e 64 -c 3 -i 14 -a 3 -x {2.0 4.0 -1 ------- null}
h -t 0.125512 -s 5 -d 4 -p ping -e 64 -c 3 -i 14 -a 3 -x {2.0 4.0 -1 ------- null}
+ -t 0.126 -s 2 -d 5 -p ping -e 64 -c 3 -i 29 -a 3 -x {2.0 4.0 -1 ------- null}
- -t 0.126 -s 2 -d 5 -p ping -e 64 -c 3 -i 29 -a 3 -x {2.0 4.0 -1 ------- null}
h -t 0.126 -s 2 -d 5 -p ping -e 64 -c 3 -i 29 -a 3 -x {2.0 4.0 -1 ------- null}
r -t 0.126024 -s 5 -d 4 -p ping -e 64 -c 3 -i 4 -a 3 -x {2.0 4.0 -1 ------- null}
+ -t 0.126024 -s 4 -d 5 -p ping -e 64 -c 5 -i 30 -a 5 -x {4.0 2.0 -1 ------- null}
- -t 0.126024 -s 4 -d 5 -p ping -e 64 -c 5 -i 30 -a 5 -x {4.0 2.0 -1 ------- null}
h -t 0.126024 -s 4 -d 5 -p ping -e 64 -c 5 -i 30 -a 5 -x {4.0 2.0 -1 ------- null}
r -t 0.126512 -s 2 -d 5 -p ping -e 64 -c 3 -i 15 -a 3 -x {2.0 4.0 -1 ------- null}
+ -t 0.126512 -s 5 -d 4 -p ping -e 64 -c 3 -i 15 -a 3 -x {2.0 4.0 -1 ------- null}
- -t 0.126512 -s 5 -d 4 -p ping -e 64 -c 3 -i 15 -a 3 -x {2.0 4.0 -1 ------- null}
h -t 0.126512 -s 5 -d 4 -p ping -e 64 -c 3 -i 15 -a 3 -x {2.0 4.0 -1 ------- null}
+ -t 0.127 -s 2 -d 5 -p ping -e 64 -c 3 -i 31 -a 3 -x {2.0 4.0 -1 ------- null}
- -t 0.127 -s 2 -d 5 -p ping -e 64 -c 3 -i 31 -a 3 -x {2.0 4.0 -1 ------- null}
h -t 0.127 -s 2 -d 5 -p ping -e 64 -c 3 -i 31 -a 3 -x {2.0 4.0 -1 ------- null}
r -t 0.127024 -s 5 -d 4 -p ping -e 64 -c 3 -i 5 -a 3 -x {2.0 4.0 -1 ------- null}
+ -t 0.127024 -s 4 -d 5 -p ping -e 64 -c 5 -i 32 -a 5 -x {4.0 2.0 -1 ------- null}
- -t 0.127024 -s 4 -d 5 -p ping -e 64 -c 5 -i 32 -a 5 -x {4.0 2.0 -1 ------- null}
h -t 0.127024 -s 4 -d 5 -p ping -e 64 -c 5 -i 32 -a 5 -x {4.0 2.0 -1 ------- null}
r -t 0.127512 -s 2 -d 5 -p ping -e 64 -c 3 -i 16 -a 3 -x {2.0 4.0 -1 ------- null}
+ -t 0.127512 -s 5 -d 4 -p ping -e 64 -c 3 -i 16 -a 3 -x {2.0 4.0 -1 ------- null}
- -t 0.127512 -s 5 -d 4 -p ping -e 64 -c 3 -i 16 -a 3 -x {2.0 4.0 -1 ------- null}
h -t 0.127512 -s 5 -d 4 -p ping -e 64 -c 3 -i 16 -a 3 -x {2.0 4.0 -1 ------- null}
+ -t 0.128 -s 2 -d 5 -p ping -e 64 -c 3 -i 33 -a 3 -x {2.0 4.0 -1 ------- null}
- -t 0.128 -s 2 -d 5 -p ping -e 64 -c 3 -i 33 -a 3 -x {2.0 4.0 -1 ------- null}
h -t 0.128 -s 2 -d 5 -p ping -e 64 -c 3 -i 33 -a 3 -x {2.0 4.0 -1 ------- null}
r -t 0.128024 -s 5 -d 4 -p ping -e 64 -c 3 -i 6 -a 3 -x {2.0 4.0 -1 ------- null}
+ -t 0.128024 -s 4 -d 5 -p ping -e 64 -c 5 -i 34 -a 5 -x {4.0 2.0 -1 ------- null}
- -t 0.128024 -s 4 -d 5 -p ping -e 64 -c 5 -i 34 -a 5 -x {4.0 2.0 -1 ------- null}
h -t 0.128024 -s 4 -d 5 -p ping -e 64 -c 5 -i 34 -a 5 -x {4.0 2.0 -1 ------- null}
r -t 0.128512 -s 2 -d 5 -p ping -e 64 -c 3 -i 17 -a 3 -x {2.0 4.0 -1 ------- null}
+ -t 0.128512 -s 5 -d 4 -p ping -e 64 -c 3 -i 17 -a 3 -x {2.0 4.0 -1 ------- null}
- -t 0.128512 -s 5 -d 4 -p ping -e 64 -c 3 -i 17 -a 3 -x {2.0 4.0 -1 ------- null}
h -t 0.128512 -s 5 -d 4 -p ping -e 64 -c 3 -i 17 -a 3 -x {2.0 4.0 -1 ------- null}
+ -t 0.129 -s 2 -d 5 -p ping -e 64 -c 3 -i 35 -a 3 -x {2.0 4.0 -1 ------- null}
- -t 0.129 -s 2 -d 5 -p ping -e 64 -c 3 -i 35 -a 3 -x {2.0 4.0 -1 ------- null}
h -t 0.129 -s 2 -d 5 -p ping -e 64 -c 3 -i 35 -a 3 -x {2.0 4.0 -1 ------- null}
r -t 0.129024 -s 5 -d 4 -p ping -e 64 -c 3 -i 7 -a 3 -x {2.0 4.0 -1 ------- null}
+ -t 0.129024 -s 4 -d 5 -p ping -e 64 -c 5 -i 36 -a 5 -x {4.0 2.0 -1 ------- null}
- -t 0.129024 -s 4 -d 5 -p ping -e 64 -c 5 -i 36 -a 5 -x {4.0 2.0 -1 ------- null}
h -t 0.129024 -s 4 -d 5 -p ping -e 64 -c 5 -i 36 -a 5 -x {4.0 2.0 -1 ------- null}
r -t 0.129512 -s 2 -d 5 -p ping -e 64 -c 3 -i 18 -a 3 -x {2.0 4.0 -1 ------- null}
+ -t 0.129512 -s 5 -d 4 -p ping -e 64 -c 3 -i 18 -a 3 -x {2.0 4.0 -1 ------- null}
- -t 0.129512 -s 5 -d 4 -p ping -e 64 -c 3 -i 18 -a 3 -x {2.0 4.0 -1 ------- null}
h -t 0.129512 -s 5 -d 4 -p ping -e 64 -c 3 -i 18 -a 3 -x {2.0 4.0 -1 ------- null}
+ -t 0.13 -s 2 -d 5 -p ping -e 64 -c 3 -i 37 -a 3 -x {2.0 4.0 -1 ------- null}
- -t 0.13 -s 2 -d 5 -p ping -e 64 -c 3 -i 37 -a 3 -x {2.0 4.0 -1 ------- null}
h -t 0.13 -s 2 -d 5 -p ping -e 64 -c 3 -i 37 -a 3 -x {2.0 4.0 -1 ------- null}
r -t 0.130024 -s 5 -d 4 -p ping -e 64 -c 3 -i 8 -a 3 -x {2.0 4.0 -1 ------- null}
+ -t 0.130024 -s 4 -d 5 -p ping -e 64 -c 5 -i 38 -a 5 -x {4.0 2.0 -1 ------- null}
- -t 0.130024 -s 4 -d 5 -p ping -e 64 -c 5 -i 38 -a 5 -x {4.0 2.0 -1 ------- null}
h -t 0.130024 -s 4 -d 5 -p ping -e 64 -c 5 -i 38 -a 5 -x {4.0 2.0 -1 ------- null}
r -t 0.130512 -s 2 -d 5 -p ping -e 64 -c 3 -i 19 -a 3 -x {2.0 4.0 -1 ------- null}
+ -t 0.130512 -s 5 -d 4 -p ping -e 64 -c 3 -i 19 -a 3 -x {2.0 4.0 -1 ------- null}
- -t 0.130512 -s 5 -d 4 -p ping -e 64 -c 3 -i 19 -a 3 -x {2.0 4.0 -1 ------- null}
h -t 0.130512 -s 5 -d 4 -p ping -e 64 -c 3 -i 19 -a 3 -x {2.0 4.0 -1 ------- null}
+ -t 0.131 -s 2 -d 5 -p ping -e 64 -c 3 -i 39 -a 3 -x {2.0 4.0 -1 ------- null}
- -t 0.131 -s 2 -d 5 -p ping -e 64 -c 3 -i 39 -a 3 -x {2.0 4.0 -1 ------- null}
h -t 0.131 -s 2 -d 5 -p ping -e 64 -c 3 -i 39 -a 3 -x {2.0 4.0 -1 ------- null}
r -t 0.131024 -s 5 -d 4 -p ping -e 64 -c 3 -i 9 -a 3 -x {2.0 4.0 -1 ------- null}
+ -t 0.131024 -s 4 -d 5 -p ping -e 64 -c 5 -i 40 -a 5 -x {4.0 2.0 -1 ------- null}
- -t 0.131024 -s 4 -d 5 -p ping -e 64 -c 5 -i 40 -a 5 -x {4.0 2.0 -1 ------- null}
h -t 0.131024 -s 4 -d 5 -p ping -e 64 -c 5 -i 40 -a 5 -x {4.0 2.0 -1 ------- null}
r -t 0.131512 -s 2 -d 5 -p ping -e 64 -c 3 -i 20 -a 3 -x {2.0 4.0 -1 ------- null}
+ -t 0.131512 -s 5 -d 4 -p ping -e 64 -c 3 -i 20 -a 3 -x {2.0 4.0 -1 ------- null}
- -t 0.131512 -s 5 -d 4 -p ping -e 64 -c 3 -i 20 -a 3 -x {2.0 4.0 -1 ------- null}
h -t 0.131512 -s 5 -d 4 -p ping -e 64 -c 3 -i 20 -a 3 -x {2.0 4.0 -1 ------- null}
+ -t 0.132 -s 2 -d 5 -p ping -e 64 -c 3 -i 41 -a 3 -x {2.0 4.0 -1 ------- null}
- -t 0.132 -s 2 -d 5 -p ping -e 64 -c 3 -i 41 -a 3 -x {2.0 4.0 -1 ------- null}
h -t 0.132 -s 2 -d 5 -p ping -e 64 -c 3 -i 41 -a 3 -x {2.0 4.0 -1 ------- null}
r -t 0.132024 -s 5 -d 4 -p ping -e 64 -c 3 -i 10 -a 3 -x {2.0 4.0 -1 ------- null}
+ -t 0.132024 -s 4 -d 5 -p ping -e 64 -c 5 -i 42 -a 5 -x {4.0 2.0 -1 ------- null}
- -t 0.132024 -s 4 -d 5 -p ping -e 64 -c 5 -i 42 -a 5 -x {4.0 2.0 -1 ------- null}
h -t 0.132024 -s 4 -d 5 -p ping -e 64 -c 5 -i 42 -a 5 -x {4.0 2.0 -1 ------- null}
r -t 0.132512 -s 2 -d 5 -p ping -e 64 -c 3 -i 21 -a 3 -x {2.0 4.0 -1 ------- null}
+ -t 0.132512 -s 5 -d 4 -p ping -e 64 -c 3 -i 21 -a 3 -x {2.0 4.0 -1 ------- null}
- -t 0.132512 -s 5 -d 4 -p ping -e 64 -c 3 -i 21 -a 3 -x {2.0 4.0 -1 ------- null}
h -t 0.132512 -s 5 -d 4 -p ping -e 64 -c 3 -i 21 -a 3 -x {2.0 4.0 -1 ------- null}
r -t 0.132536 -s 4 -d 5 -p ping -e 64 -c 5 -i 22 -a 5 -x {4.0 2.0 -1 ------- null}
+ -t 0.132536 -s 5 -d 2 -p ping -e 64 -c 5 -i 22 -a 5 -x {4.0 2.0 -1 ------- null}
- -t 0.132536 -s 5 -d 2 -p ping -e 64 -c 5 -i 22 -a 5 -x {4.0 2.0 -1 ------- null}
h -t 0.132536 -s 5 -d 2 -p ping -e 64 -c 5 -i 22 -a 5 -x {4.0 2.0 -1 ------- null}
+ -t 0.133 -s 2 -d 5 -p ping -e 64 -c 3 -i 43 -a 3 -x {2.0 4.0 -1 ------- null}
- -t 0.133 -s 2 -d 5 -p ping -e 64 -c 3 -i 43 -a 3 -x {2.0 4.0 -1 ------- null}
h -t 0.133 -s 2 -d 5 -p ping -e 64 -c 3 -i 43 -a 3 -x {2.0 4.0 -1 ------- null}
r -t 0.133024 -s 5 -d 4 -p ping -e 64 -c 3 -i 11 -a 3 -x {2.0 4.0 -1 ------- null}
+ -t 0.133024 -s 4 -d 5 -p ping -e 64 -c 5 -i 44 -a 5 -x {4.0 2.0 -1 ------- null}
- -t 0.133024 -s 4 -d 5 -p ping -e 64 -c 5 -i 44 -a 5 -x {4.0 2.0 -1 ------- null}
h -t 0.133024 -s 4 -d 5 -p ping -e 64 -c 5 -i 44 -a 5 -x {4.0 2.0 -1 ------- null}
r -t 0.133512 -s 2 -d 5 -p ping -e 64 -c 3 -i 23 -a 3 -x {2.0 4.0 -1 ------- null}
+ -t 0.133512 -s 5 -d 4 -p ping -e 64 -c 3 -i 23 -a 3 -x {2.0 4.0 -1 ------- null}
- -t 0.133512 -s 5 -d 4 -p ping -e 64 -c 3 -i 23 -a 3 -x {2.0 4.0 -1 ------- null}
h -t 0.133512 -s 5 -d 4 -p ping -e 64 -c 3 -i 23 -a 3 -x {2.0 4.0 -1 ------- null}
r -t 0.133536 -s 4 -d 5 -p ping -e 64 -c 5 -i 24 -a 5 -x {4.0 2.0 -1 ------- null}
+ -t 0.133536 -s 5 -d 2 -p ping -e 64 -c 5 -i 24 -a 5 -x {4.0 2.0 -1 ------- null}
- -t 0.133536 -s 5 -d 2 -p ping -e 64 -c 5 -i 24 -a 5 -x {4.0 2.0 -1 ------- null}
h -t 0.133536 -s 5 -d 2 -p ping -e 64 -c 5 -i 24 -a 5 -x {4.0 2.0 -1 ------- null}
+ -t 0.134 -s 2 -d 5 -p ping -e 64 -c 3 -i 45 -a 3 -x {2.0 4.0 -1 ------- null}
- -t 0.134 -s 2 -d 5 -p ping -e 64 -c 3 -i 45 -a 3 -x {2.0 4.0 -1 ------- null}
h -t 0.134 -s 2 -d 5 -p ping -e 64 -c 3 -i 45 -a 3 -x {2.0 4.0 -1 ------- null}
r -t 0.134024 -s 5 -d 4 -p ping -e 64 -c 3 -i 12 -a 3 -x {2.0 4.0 -1 ------- null}
+ -t 0.134024 -s 4 -d 5 -p ping -e 64 -c 5 -i 46 -a 5 -x {4.0 2.0 -1 ------- null}
- -t 0.134024 -s 4 -d 5 -p ping -e 64 -c 5 -i 46 -a 5 -x {4.0 2.0 -1 ------- null}
h -t 0.134024 -s 4 -d 5 -p ping -e 64 -c 5 -i 46 -a 5 -x {4.0 2.0 -1 ------- null}
r -t 0.134512 -s 2 -d 5 -p ping -e 64 -c 3 -i 25 -a 3 -x {2.0 4.0 -1 ------- null}
+ -t 0.134512 -s 5 -d 4 -p ping -e 64 -c 3 -i 25 -a 3 -x {2.0 4.0 -1 ------- null}
- -t 0.134512 -s 5 -d 4 -p ping -e 64 -c 3 -i 25 -a 3 -x {2.0 4.0 -1 ------- null}
h -t 0.134512 -s 5 -d 4 -p ping -e 64 -c 3 -i 25 -a 3 -x {2.0 4.0 -1 ------- null}
r -t 0.134536 -s 4 -d 5 -p ping -e 64 -c 5 -i 26 -a 5 -x {4.0 2.0 -1 ------- null}
+ -t 0.134536 -s 5 -d 2 -p ping -e 64 -c 5 -i 26 -a 5 -x {4.0 2.0 -1 ------- null}
- -t 0.134536 -s 5 -d 2 -p ping -e 64 -c 5 -i 26 -a 5 -x {4.0 2.0 -1 ------- null}
h -t 0.134536 -s 5 -d 2 -p ping -e 64 -c 5 -i 26 -a 5 -x {4.0 2.0 -1 ------- null}
+ -t 0.135 -s 2 -d 5 -p ping -e 64 -c 3 -i 47 -a 3 -x {2.0 4.0 -1 ------- null}
- -t 0.135 -s 2 -d 5 -p ping -e 64 -c 3 -i 47 -a 3 -x {2.0 4.0 -1 ------- null}
h -t 0.135 -s 2 -d 5 -p ping -e 64 -c 3 -i 47 -a 3 -x {2.0 4.0 -1 ------- null}
r -t 0.135024 -s 5 -d 4 -p ping -e 64 -c 3 -i 13 -a 3 -x {2.0 4.0 -1 ------- null}
+ -t 0.135024 -s 4 -d 5 -p ping -e 64 -c 5 -i 48 -a 5 -x {4.0 2.0 -1 ------- null}
- -t 0.135024 -s 4 -d 5 -p ping -e 64 -c 5 -i 48 -a 5 -x {4.0 2.0 -1 ------- null}
h -t 0.135024 -s 4 -d 5 -p ping -e 64 -c 5 -i 48 -a 5 -x {4.0 2.0 -1 ------- null}
r -t 0.135512 -s 2 -d 5 -p ping -e 64 -c 3 -i 27 -a 3 -x {2.0 4.0 -1 ------- null}
+ -t 0.135512 -s 5 -d 4 -p ping -e 64 -c 3 -i 27 -a 3 -x {2.0 4.0 -1 ------- null}
- -t 0.135512 -s 5 -d 4 -p ping -e 64 -c 3 -i 27 -a 3 -x {2.0 4.0 -1 ------- null}
h -t 0.135512 -s 5 -d 4 -p ping -e 64 -c 3 -i 27 -a 3 -x {2.0 4.0 -1 ------- null}
r -t 0.135536 -s 4 -d 5 -p ping -e 64 -c 5 -i 28 -a 5 -x {4.0 2.0 -1 ------- null}
+ -t 0.135536 -s 5 -d 2 -p ping -e 64 -c 5 -i 28 -a 5 -x {4.0 2.0 -1 ------- null}
- -t 0.135536 -s 5 -d 2 -p ping -e 64 -c 5 -i 28 -a 5 -x {4.0 2.0 -1 ------- null}
h -t 0.135536 -s 5 -d 2 -p ping -e 64 -c 5 -i 28 -a 5 -x {4.0 2.0 -1 ------- null}
+ -t 0.136 -s 2 -d 5 -p ping -e 64 -c 3 -i 49 -a 3 -x {2.0 4.0 -1 ------- null}
- -t 0.136 -s 2 -d 5 -p ping -e 64 -c 3 -i 49 -a 3 -x {2.0 4.0 -1 ------- null}
h -t 0.136 -s 2 -d 5 -p ping -e 64 -c 3 -i 49 -a 3 -x {2.0 4.0 -1 ------- null}
r -t 0.136024 -s 5 -d 4 -p ping -e 64 -c 3 -i 14 -a 3 -x {2.0 4.0 -1 ------- null}
+ -t 0.136024 -s 4 -d 5 -p ping -e 64 -c 5 -i 50 -a 5 -x {4.0 2.0 -1 ------- null}
- -t 0.136024 -s 4 -d 5 -p ping -e 64 -c 5 -i 50 -a 5 -x {4.0 2.0 -1 ------- null}
h -t 0.136024 -s 4 -d 5 -p ping -e 64 -c 5 -i 50 -a 5 -x {4.0 2.0 -1 ------- null}
r -t 0.136512 -s 2 -d 5 -p ping -e 64 -c 3 -i 29 -a 3 -x {2.0 4.0 -1 ------- null}
+ -t 0.136512 -s 5 -d 4 -p ping -e 64 -c 3 -i 29 -a 3 -x {2.0 4.0 -1 ------- null}
- -t 0.136512 -s 5 -d 4 -p ping -e 64 -c 3 -i 29 -a 3 -x {2.0 4.0 -1 ------- null}
h -t 0.136512 -s 5 -d 4 -p ping -e 64 -c 3 -i 29 -a 3 -x {2.0 4.0 -1 ------- null}
r -t 0.136536 -s 4 -d 5 -p ping -e 64 -c 5 -i 30 -a 5 -x {4.0 2.0 -1 ------- null}
+ -t 0.136536 -s 5 -d 2 -p ping -e 64 -c 5 -i 30 -a 5 -x {4.0 2.0 -1 ------- null}
- -t 0.136536 -s 5 -d 2 -p ping -e 64 -c 5 -i 30 -a 5 -x {4.0 2.0 -1 ------- null}
h -t 0.136536 -s 5 -d 2 -p ping -e 64 -c 5 -i 30 -a 5 -x {4.0 2.0 -1 ------- null}
+ -t 0.137 -s 2 -d 5 -p ping -e 64 -c 3 -i 51 -a 3 -x {2.0 4.0 -1 ------- null}
- -t 0.137 -s 2 -d 5 -p ping -e 64 -c 3 -i 51 -a 3 -x {2.0 4.0 -1 ------- null}
h -t 0.137 -s 2 -d 5 -p ping -e 64 -c 3 -i 51 -a 3 -x {2.0 4.0 -1 ------- null}
r -t 0.137024 -s 5 -d 4 -p ping -e 64 -c 3 -i 15 -a 3 -x {2.0 4.0 -1 ------- null}
+ -t 0.137024 -s 4 -d 5 -p ping -e 64 -c 5 -i 52 -a 5 -x {4.0 2.0 -1 ------- null}
- -t 0.137024 -s 4 -d 5 -p ping -e 64 -c 5 -i 52 -a 5 -x {4.0 2.0 -1 ------- null}
h -t 0.137024 -s 4 -d 5 -p ping -e 64 -c 5 -i 52 -a 5 -x {4.0 2.0 -1 ------- null}
r -t 0.137512 -s 2 -d 5 -p ping -e 64 -c 3 -i 31 -a 3 -x {2.0 4.0 -1 ------- null}
+ -t 0.137512 -s 5 -d 4 -p ping -e 64 -c 3 -i 31 -a 3 -x {2.0 4.0 -1 ------- null}
- -t 0.137512 -s 5 -d 4 -p ping -e 64 -c 3 -i 31 -a 3 -x {2.0 4.0 -1 ------- null}
h -t 0.137512 -s 5 -d 4 -p ping -e 64 -c 3 -i 31 -a 3 -x {2.0 4.0 -1 ------- null}
r -t 0.137536 -s 4 -d 5 -p ping -e 64 -c 5 -i 32 -a 5 -x {4.0 2.0 -1 ------- null}
+ -t 0.137536 -s 5 -d 2 -p ping -e 64 -c 5 -i 32 -a 5 -x {4.0 2.0 -1 ------- null}
- -t 0.137536 -s 5 -d 2 -p ping -e 64 -c 5 -i 32 -a 5 -x {4.0 2.0 -1 ------- null}
h -t 0.137536 -s 5 -d 2 -p ping -e 64 -c 5 -i 32 -a 5 -x {4.0 2.0 -1 ------- null}
+ -t 0.138 -s 2 -d 5 -p ping -e 64 -c 3 -i 53 -a 3 -x {2.0 4.0 -1 ------- null}
- -t 0.138 -s 2 -d 5 -p ping -e 64 -c 3 -i 53 -a 3 -x {2.0 4.0 -1 ------- null}
h -t 0.138 -s 2 -d 5 -p ping -e 64 -c 3 -i 53 -a 3 -x {2.0 4.0 -1 ------- null}
r -t 0.138024 -s 5 -d 4 -p ping -e 64 -c 3 -i 16 -a 3 -x {2.0 4.0 -1 ------- null}
+ -t 0.138024 -s 4 -d 5 -p ping -e 64 -c 5 -i 54 -a 5 -x {4.0 2.0 -1 ------- null}
- -t 0.138024 -s 4 -d 5 -p ping -e 64 -c 5 -i 54 -a 5 -x {4.0 2.0 -1 ------- null}
h -t 0.138024 -s 4 -d 5 -p ping -e 64 -c 5 -i 54 -a 5 -x {4.0 2.0 -1 ------- null}
r -t 0.138512 -s 2 -d 5 -p ping -e 64 -c 3 -i 33 -a 3 -x {2.0 4.0 -1 ------- null}
+ -t 0.138512 -s 5 -d 4 -p ping -e 64 -c 3 -i 33 -a 3 -x {2.0 4.0 -1 ------- null}
- -t 0.138512 -s 5 -d 4 -p ping -e 64 -c 3 -i 33 -a 3 -x {2.0 4.0 -1 ------- null}
h -t 0.138512 -s 5 -d 4 -p ping -e 64 -c 3 -i 33 -a 3 -x {2.0 4.0 -1 ------- null}
r -t 0.138536 -s 4 -d 5 -p ping -e 64 -c 5 -i 34 -a 5 -x {4.0 2.0 -1 ------- null}
+ -t 0.138536 -s 5 -d 2 -p ping -e 64 -c 5 -i 34 -a 5 -x {4.0 2.0 -1 ------- null}
- -t 0.138536 -s 5 -d 2 -p ping -e 64 -c 5 -i 34 -a 5 -x {4.0 2.0 -1 ------- null}
h -t 0.138536 -s 5 -d 2 -p ping -e 64 -c 5 -i 34 -a 5 -x {4.0 2.0 -1 ------- null}
+ -t 0.139 -s 2 -d 5 -p ping -e 64 -c 3 -i 55 -a 3 -x {2.0 4.0 -1 ------- null}
- -t 0.139 -s 2 -d 5 -p ping -e 64 -c 3 -i 55 -a 3 -x {2.0 4.0 -1 ------- null}
h -t 0.139 -s 2 -d 5 -p ping -e 64 -c 3 -i 55 -a 3 -x {2.0 4.0 -1 ------- null}
r -t 0.139024 -s 5 -d 4 -p ping -e 64 -c 3 -i 17 -a 3 -x {2.0 4.0 -1 ------- null}
+ -t 0.139024 -s 4 -d 5 -p ping -e 64 -c 5 -i 56 -a 5 -x {4.0 2.0 -1 ------- null}
- -t 0.139024 -s 4 -d 5 -p ping -e 64 -c 5 -i 56 -a 5 -x {4.0 2.0 -1 ------- null}
h -t 0.139024 -s 4 -d 5 -p ping -e 64 -c 5 -i 56 -a 5 -x {4.0 2.0 -1 ------- null}
r -t 0.139512 -s 2 -d 5 -p ping -e 64 -c 3 -i 35 -a 3 -x {2.0 4.0 -1 ------- null}
+ -t 0.139512 -s 5 -d 4 -p ping -e 64 -c 3 -i 35 -a 3 -x {2.0 4.0 -1 ------- null}
- -t 0.139512 -s 5 -d 4 -p ping -e 64 -c 3 -i 35 -a 3 -x {2.0 4.0 -1 ------- null}
h -t 0.139512 -s 5 -d 4 -p ping -e 64 -c 3 -i 35 -a 3 -x {2.0 4.0 -1 ------- null}
r -t 0.139536 -s 4 -d 5 -p ping -e 64 -c 5 -i 36 -a 5 -x {4.0 2.0 -1 ------- null}
+ -t 0.139536 -s 5 -d 2 -p ping -e 64 -c 5 -i 36 -a 5 -x {4.0 2.0 -1 ------- null}
- -t 0.139536 -s 5 -d 2 -p ping -e 64 -c 5 -i 36 -a 5 -x {4.0 2.0 -1 ------- null}
h -t 0.139536 -s 5 -d 2 -p ping -e 64 -c 5 -i 36 -a 5 -x {4.0 2.0 -1 ------- null}
+ -t 0.14 -s 2 -d 5 -p ping -e 64 -c 3 -i 57 -a 3 -x {2.0 4.0 -1 ------- null}
- -t 0.14 -s 2 -d 5 -p ping -e 64 -c 3 -i 57 -a 3 -x {2.0 4.0 -1 ------- null}
h -t 0.14 -s 2 -d 5 -p ping -e 64 -c 3 -i 57 -a 3 -x {2.0 4.0 -1 ------- null}
r -t 0.140024 -s 5 -d 4 -p ping -e 64 -c 3 -i 18 -a 3 -x {2.0 4.0 -1 ------- null}
+ -t 0.140024 -s 4 -d 5 -p ping -e 64 -c 5 -i 58 -a 5 -x {4.0 2.0 -1 ------- null}
- -t 0.140024 -s 4 -d 5 -p ping -e 64 -c 5 -i 58 -a 5 -x {4.0 2.0 -1 ------- null}
h -t 0.140024 -s 4 -d 5 -p ping -e 64 -c 5 -i 58 -a 5 -x {4.0 2.0 -1 ------- null}
r -t 0.140512 -s 2 -d 5 -p ping -e 64 -c 3 -i 37 -a 3 -x {2.0 4.0 -1 ------- null}
+ -t 0.140512 -s 5 -d 4 -p ping -e 64 -c 3 -i 37 -a 3 -x {2.0 4.0 -1 ------- null}
- -t 0.140512 -s 5 -d 4 -p ping -e 64 -c 3 -i 37 -a 3 -x {2.0 4.0 -1 ------- null}
h -t 0.140512 -s 5 -d 4 -p ping -e 64 -c 3 -i 37 -a 3 -x {2.0 4.0 -1 ------- null}
r -t 0.140536 -s 4 -d 5 -p ping -e 64 -c 5 -i 38 -a 5 -x {4.0 2.0 -1 ------- null}
+ -t 0.140536 -s 5 -d 2 -p ping -e 64 -c 5 -i 38 -a 5 -x {4.0 2.0 -1 ------- null}
- -t 0.140536 -s 5 -d 2 -p ping -e 64 -c 5 -i 38 -a 5 -x {4.0 2.0 -1 ------- null}
h -t 0.140536 -s 5 -d 2 -p ping -e 64 -c 5 -i 38 -a 5 -x {4.0 2.0 -1 ------- null}
+ -t 0.141 -s 2 -d 5 -p ping -e 64 -c 3 -i 59 -a 3 -x {2.0 4.0 -1 ------- null}
- -t 0.141 -s 2 -d 5 -p ping -e 64 -c 3 -i 59 -a 3 -x {2.0 4.0 -1 ------- null}
h -t 0.141 -s 2 -d 5 -p ping -e 64 -c 3 -i 59 -a 3 -x {2.0 4.0 -1 ------- null}