+ 0.101 2 5 ping 64 ------- 3 2.0 4.0 -1 0
- 0.101 2 5 ping 64 ------- 3 2.0 4.0 -1 0
+ 0.102 2 5 ping 64 ------- 3 2.0 4.0 -1 1
- 0.102 2 5 ping 64 ------- 3 2.0 4.0 -1 1
+ 0.103 2 5 ping 64 ------- 3 2.0 4.0 -1 2
- 0.103 2 5 ping 64 ------- 3 2.0 4.0 -1 2
+ 0.104 2 5 ping 64 ------- 3 2.0 4.0 -1 3
- 0.104 2 5 ping 64 ------- 3 2.0 4.0 -1 3
+ 0.105 2 5 ping 64 ------- 3 2.0 4.0 -1 4
- 0.105 2 5 ping 64 ------- 3 2.0 4.0 -1 4
+ 0.106 2 5 ping 64 ------- 3 2.0 4.0 -1 5
- 0.106 2 5 ping 64 ------- 3 2.0 4.0 -1 5
+ 0.107 2 5 ping 64 ------- 3 2.0 4.0 -1 6
- 0.107 2 5 ping 64 ------- 3 2.0 4.0 -1 6
+ 0.108 2 5 ping 64 ------- 3 2.0 4.0 -1 7
- 0.108 2 5 ping 64 ------- 3 2.0 4.0 -1 7
+ 0.109 2 5 ping 64 ------- 3 2.0 4.0 -1 8
- 0.109 2 5 ping 64 ------- 3 2.0 4.0 -1 8
+ 0.11 2 5 ping 64 ------- 3 2.0 4.0 -1 9
- 0.11 2 5 ping 64 ------- 3 2.0 4.0 -1 9
+ 0.111 2 5 ping 64 ------- 3 2.0 4.0 -1 10
- 0.111 2 5 ping 64 ------- 3 2.0 4.0 -1 10
r 0.111512 2 5 ping 64 ------- 3 2.0 4.0 -1 0
+ 0.111512 5 4 ping 64 ------- 3 2.0 4.0 -1 0
- 0.111512 5 4 ping 64 ------- 3 2.0 4.0 -1 0
+ 0.112 2 5 ping 64 ------- 3 2.0 4.0 -1 11
- 0.112 2 5 ping 64 ------- 3 2.0 4.0 -1 11
r 0.112512 2 5 ping 64 ------- 3 2.0 4.0 -1 1
+ 0.112512 5 4 ping 64 ------- 3 2.0 4.0 -1 1
- 0.112512 5 4 ping 64 ------- 3 2.0 4.0 -1 1
+ 0.113 2 5 ping 64 ------- 3 2.0 4.0 -1 12
- 0.113 2 5 ping 64 ------- 3 2.0 4.0 -1 12
r 0.113512 2 5 ping 64 ------- 3 2.0 4.0 -1 2
+ 0.113512 5 4 ping 64 ------- 3 2.0 4.0 -1 2
- 0.113512 5 4 ping 64 ------- 3 2.0 4.0 -1 2
+ 0.114 2 5 ping 64 ------- 3 2.0 4.0 -1 13
- 0.114 2 5 ping 64 ------- 3 2.0 4.0 -1 13
r 0.114512 2 5 ping 64 ------- 3 2.0 4.0 -1 3
+ 0.114512 5 4 ping 64 ------- 3 2.0 4.0 -1 3
- 0.114512 5 4 ping 64 ------- 3 2.0 4.0 -1 3
+ 0.115 2 5 ping 64 ------- 3 2.0 4.0 -1 14
- 0.115 2 5 ping 64 ------- 3 2.0 4.0 -1 14
r 0.115512 2 5 ping 64 ------- 3 2.0 4.0 -1 4
+ 0.115512 5 4 ping 64 ------- 3 2.0 4.0 -1 4
- 0.115512 5 4 ping 64 ------- 3 2.0 4.0 -1 4
+ 0.116 2 5 ping 64 ------- 3 2.0 4.0 -1 15
- 0.116 2 5 ping 64 ------- 3 2.0 4.0 -1 15
r 0.116512 2 5 ping 64 ------- 3 2.0 4.0 -1 5
+ 0.116512 5 4 ping 64 ------- 3 2.0 4.0 -1 5
- 0.116512 5 4 ping 64 ------- 3 2.0 4.0 -1 5
+ 0.117 2 5 ping 64 ------- 3 2.0 4.0 -1 16
- 0.117 2 5 ping 64 ------- 3 2.0 4.0 -1 16
r 0.117512 2 5 ping 64 ------- 3 2.0 4.0 -1 6
+ 0.117512 5 4 ping 64 ------- 3 2.0 4.0 -1 6
- 0.117512 5 4 ping 64 ------- 3 2.0 4.0 -1 6
+ 0.118 2 5 ping 64 ------- 3 2.0 4.0 -1 17
- 0.118 2 5 ping 64 ------- 3 2.0 4.0 -1 17
r 0.118512 2 5 ping 64 ------- 3 2.0 4.0 -1 7
+ 0.118512 5 4 ping 64 ------- 3 2.0 4.0 -1 7
- 0.118512 5 4 ping 64 ------- 3 2.0 4.0 -1 7
+ 0.119 2 5 ping 64 ------- 3 2.0 4.0 -1 18
- 0.119 2 5 ping 64 ------- 3 2.0 4.0 -1 18
r 0.119512 2 5 ping 64 ------- 3 2.0 4.0 -1 8
+ 0.119512 5 4 ping 64 ------- 3 2.0 4.0 -1 8
- 0.119512 5 4 ping 64 ------- 3 2.0 4.0 -1 8
+ 0.12 2 5 ping 64 ------- 3 2.0 4.0 -1 19
- 0.12 2 5 ping 64 ------- 3 2.0 4.0 -1 19
r 0.120512 2 5 ping 64 ------- 3 2.0 4.0 -1 9
+ 0.120512 5 4 ping 64 ------- 3 2.0 4.0 -1 9
- 0.120512 5 4 ping 64 ------- 3 2.0 4.0 -1 9
+ 0.121 2 5 ping 64 ------- 3 2.0 4.0 -1 20
- 0.121 2 5 ping 64 ------- 3 2.0 4.0 -1 20
r 0.121512 2 5 ping 64 ------- 3 2.0 4.0 -1 10
+ 0.121512 5 4 ping 64 ------- 3 2.0 4.0 -1 10
- 0.121512 5 4 ping 64 ------- 3 2.0 4.0 -1 10
+ 0.122 2 5 ping 64 ------- 3 2.0 4.0 -1 21
- 0.122 2 5 ping 64 ------- 3 2.0 4.0 -1 21
r 0.122024 5 4 ping 64 ------- 3 2.0 4.0 -1 0
+ 0.122024 4 5 ping 64 ------- 5 4.0 2.0 -1 22
- 0.122024 4 5 ping 64 ------- 5 4.0 2.0 -1 22
r 0.122512 2 5 ping 64 ------- 3 2.0 4.0 -1 11
+ 0.122512 5 4 ping 64 ------- 3 2.0 4.0 -1 11
- 0.122512 5 4 ping 64 ------- 3 2.0 4.0 -1 11
+ 0.123 2 5 ping 64 ------- 3 2.0 4.0 -1 23
- 0.123 2 5 ping 64 ------- 3 2.0 4.0 -1 23
r 0.123024 5 4 ping 64 ------- 3 2.0 4.0 -1 1
+ 0.123024 4 5 ping 64 ------- 5 4.0 2.0 -1 24
- 0.123024 4 5 ping 64 ------- 5 4.0 2.0 -1 24
r 0.123512 2 5 ping 64 ------- 3 2.0 4.0 -1 12
+ 0.123512 5 4 ping 64 ------- 3 2.0 4.0 -1 12
- 0.123512 5 4 ping 64 ------- 3 2.0 4.0 -1 12
+ 0.124 2 5 ping 64 ------- 3 2.0 4.0 -1 25
- 0.124 2 5 ping 64 ------- 3 2.0 4.0 -1 25
r 0.124024 5 4 ping 64 ------- 3 2.0 4.0 -1 2
+ 0.124024 4 5 ping 64 ------- 5 4.0 2.0 -1 26
- 0.124024 4 5 ping 64 ------- 5 4.0 2.0 -1 26
r 0.124512 2 5 ping 64 ------- 3 2.0 4.0 -1 13
+ 0.124512 5 4 ping 64 ------- 3 2.0 4.0 -1 13
- 0.124512 5 4 ping 64 ------- 3 2.0 4.0 -1 13
+ 0.125 2 5 ping 64 ------- 3 2.0 4.0 -1 27
- 0.125 2 5 ping 64 ------- 3 2.0 4.0 -1 27
r 0.125024 5 4 ping 64 ------- 3 2.0 4.0 -1 3
+ 0.125024 4 5 ping 64 ------- 5 4.0 2.0 -1 28
- 0.125024 4 5 ping 64 ------- 5 4.0 2.0 -1 28
r 0.125512 2 5 ping 64 ------- 3 2.0 4.0 -1 14
+ 0.125512 5 4 ping 64 ------- 3 2.0 4.0 -1 14
- 0.125512 5 4 ping 64 ------- 3 2.0 4.0 -1 14
+ 0.126 2 5 ping 64 ------- 3 2.0 4.0 -1 29
- 0.126 2 5 ping 64 ------- 3 2.0 4.0 -1 29
r 0.126024 5 4 ping 64 ------- 3 2.0 4.0 -1 4
+ 0.126024 4 5 ping 64 ------- 5 4.0 2.0 -1 30
- 0.126024 4 5 ping 64 ------- 5 4.0 2.0 -1 30
r 0.126512 2 5 ping 64 ------- 3 2.0 4.0 -1 15
+ 0.126512 5 4 ping 64 ------- 3 2.0 4.0 -1 15
- 0.126512 5 4 ping 64 ------- 3 2.0 4.0 -1 15
+ 0.127 2 5 ping 64 ------- 3 2.0 4.0 -1 31
- 0.127 2 5 ping 64 ------- 3 2.0 4.0 -1 31
r 0.127024 5 4 ping 64 ------- 3 2.0 4.0 -1 5
+ 0.127024 4 5 ping 64 ------- 5 4.0 2.0 -1 32
- 0.127024 4 5 ping 64 ------- 5 4.0 2.0 -1 32
r 0.127512 2 5 ping 64 ------- 3 2.0 4.0 -1 16
+ 0.127512 5 4 ping 64 ------- 3 2.0 4.0 -1 16
- 0.127512 5 4 ping 64 ------- 3 2.0 4.0 -1 16
+ 0.128 2 5 ping 64 ------- 3 2.0 4.0 -1 33
- 0.128 2 5 ping 64 ------- 3 2.0 4.0 -1 33
r 0.128024 5 4 ping 64 ------- 3 2.0 4.0 -1 6
+ 0.128024 4 5 ping 64 ------- 5 4.0 2.0 -1 34
- 0.128024 4 5 ping 64 ------- 5 4.0 2.0 -1 34
r 0.128512 2 5 ping 64 ------- 3 2.0 4.0 -1 17
+ 0.128512 5 4 ping 64 ------- 3 2.0 4.0 -1 17
- 0.128512 5 4 ping 64 ------- 3 2.0 4.0 -1 17
+ 0.129 2 5 ping 64 ------- 3 2.0 4.0 -1 35
- 0.129 2 5 ping 64 ------- 3 2.0 4.0 -1 35
r 0.129024 5 4 ping 64 ------- 3 2.0 4.0 -1 7
+ 0.129024 4 5 ping 64 ------- 5 4.0 2.0 -1 36
- 0.129024 4 5 ping 64 ------- 5 4.0 2.0 -1 36
r 0.129512 2 5 ping 64 ------- 3 2.0 4.0 -1 18
+ 0.129512 5 4 ping 64 ------- 3 2.0 4.0 -1 18
- 0.129512 5 4 ping 64 ------- 3 2.0 4.0 -1 18
+ 0.13 2 5 ping 64 ------- 3 2.0 4.0 -1 37
- 0.13 2 5 ping 64 ------- 3 2.0 4.0 -1 37
r 0.130024 5 4 ping 64 ------- 3 2.0 4.0 -1 8
+ 0.130024 4 5 ping 64 ------- 5 4.0 2.0 -1 38
- 0.130024 4 5 ping 64 ------- 5 4.0 2.0 -1 38
r 0.130512 2 5 ping 64 ------- 3 2.0 4.0 -1 19
+ 0.130512 5 4 ping 64 ------- 3 2.0 4.0 -1 19
- 0.130512 5 4 ping 64 ------- 3 2.0 4.0 -1 19
+ 0.131 2 5 ping 64 ------- 3 2.0 4.0 -1 39
- 0.131 2 5 ping 64 ------- 3 2.0 4.0 -1 39
r 0.131024 5 4 ping 64 ------- 3 2.0 4.0 -1 9
+ 0.131024 4 5 ping 64 ------- 5 4.0 2.0 -1 40
- 0.131024 4 5 ping 64 ------- 5 4.0 2.0 -1 40
r 0.131512 2 5 ping 64 ------- 3 2.0 4.0 -1 20
+ 0.131512 5 4 ping 64 ------- 3 2.0 4.0 -1 20
- 0.131512 5 4 ping 64 ------- 3 2.0 4.0 -1 20
+ 0.132 2 5 ping 64 ------- 3 2.0 4.0 -1 41
- 0.132 2 5 ping 64 ------- 3 2.0 4.0 -1 41
r 0.132024 5 4 ping 64 ------- 3 2.0 4.0 -1 10
+ 0.132024 4 5 ping 64 ------- 5 4.0 2.0 -1 42
- 0.132024 4 5 ping 64 ------- 5 4.0 2.0 -1 42
r 0.132512 2 5 ping 64 ------- 3 2.0 4.0 -1 21
+ 0.132512 5 4 ping 64 ------- 3 2.0 4.0 -1 21
- 0.132512 5 4 ping 64 ------- 3 2.0 4.0 -1 21
r 0.132536 4 5 ping 64 ------- 5 4.0 2.0 -1 22
+ 0.132536 5 2 ping 64 ------- 5 4.0 2.0 -1 22
- 0.132536 5 2 ping 64 ------- 5 4.0 2.0 -1 22
+ 0.133 2 5 ping 64 ------- 3 2.0 4.0 -1 43
- 0.133 2 5 ping 64 ------- 3 2.0 4.0 -1 43
r 0.133024 5 4 ping 64 ------- 3 2.0 4.0 -1 11
+ 0.133024 4 5 ping 64 ------- 5 4.0 2.0 -1 44
- 0.133024 4 5 ping 64 ------- 5 4.0 2.0 -1 44
r 0.133512 2 5 ping 64 ------- 3 2.0 4.0 -1 23
+ 0.133512 5 4 ping 64 ------- 3 2.0 4.0 -1 23
- 0.133512 5 4 ping 64 ------- 3 2.0 4.0 -1 23
r 0.133536 4 5 ping 64 ------- 5 4.0 2.0 -1 24
+ 0.133536 5 2 ping 64 ------- 5 4.0 2.0 -1 24
- 0.133536 5 2 ping 64 ------- 5 4.0 2.0 -1 24
+ 0.134 2 5 ping 64 ------- 3 2.0 4.0 -1 45
- 0.134 2 5 ping 64 ------- 3 2.0 4.0 -1 45
r 0.134024 5 4 ping 64 ------- 3 2.0 4.0 -1 12
+ 0.134024 4 5 ping 64 ------- 5 4.0 2.0 -1 46
- 0.134024 4 5 ping 64 ------- 5 4.0 2.0 -1 46
r 0.134512 2 5 ping 64 ------- 3 2.0 4.0 -1 25
+ 0.134512 5 4 ping 64 ------- 3 2.0 4.0 -1 25
- 0.134512 5 4 ping 64 ------- 3 2.0 4.0 -1 25
r 0.134536 4 5 ping 64 ------- 5 4.0 2.0 -1 26
+ 0.134536 5 2 ping 64 ------- 5 4.0 2.0 -1 26
- 0.134536 5 2 ping 64 ------- 5 4.0 2.0 -1 26
+ 0.135 2 5 ping 64 ------- 3 2.0 4.0 -1 47
- 0.135 2 5 ping 64 ------- 3 2.0 4.0 -1 47
r 0.135024 5 4 ping 64 ------- 3 2.0 4.0 -1 13
+ 0.135024 4 5 ping 64 ------- 5 4.0 2.0 -1 48
- 0.135024 4 5 ping 64 ------- 5 4.0 2.0 -1 48
r 0.135512 2 5 ping 64 ------- 3 2.0 4.0 -1 27
+ 0.135512 5 4 ping 64 ------- 3 2.0 4.0 -1 27
- 0.135512 5 4 ping 64 ------- 3 2.0 4.0 -1 27
r 0.135536 4 5 ping 64 ------- 5 4.0 2.0 -1 28
+ 0.135536 5 2 ping 64 ------- 5 4.0 2.0 -1 28
- 0.135536 5 2 ping 64 ------- 5 4.0 2.0 -1 28
+ 0.136 2 5 ping 64 ------- 3 2.0 4.0 -1 49
- 0.136 2 5 ping 64 ------- 3 2.0 4.0 -1 49
r 0.136024 5 4 ping 64 ------- 3 2.0 4.0 -1 14
+ 0.136024 4 5 ping 64 ------- 5 4.0 2.0 -1 50
- 0.136024 4 5 ping 64 ------- 5 4.0 2.0 -1 50
r 0.136512 2 5 ping 64 ------- 3 2.0 4.0 -1 29
+ 0.136512 5 4 ping 64 ------- 3 2.0 4.0 -1 29
- 0.136512 5 4 ping 64 ------- 3 2.0 4.0 -1 29
r 0.136536 4 5 ping 64 ------- 5 4.0 2.0 -1 30
+ 0.136536 5 2 ping 64 ------- 5 4.0 2.0 -1 30
- 0.136536 5 2 ping 64 ------- 5 4.0 2.0 -1 30
+ 0.137 2 5 ping 64 ------- 3 2.0 4.0 -1 51
- 0.137 2 5 ping 64 ------- 3 2.0 4.0 -1 51
r 0.137024 5 4 ping 64 ------- 3 2.0 4.0 -1 15
+ 0.137024 4 5 ping 64 ------- 5 4.0 2.0 -1 52
- 0.137024 4 5 ping 64 ------- 5 4.0 2.0 -1 52
r 0.137512 2 5 ping 64 ------- 3 2.0 4.0 -1 31
+ 0.137512 5 4 ping 64 ------- 3 2.0 4.0 -1 31
- 0.137512 5 4 ping 64 ------- 3 2.0 4.0 -1 31
r 0.137536 4 5 ping 64 ------- 5 4.0 2.0 -1 32
+ 0.137536 5 2 ping 64 ------- 5 4.0 2.0 -1 32
- 0.137536 5 2 ping 64 ------- 5 4.0 2.0 -1 32
+ 0.138 2 5 ping 64 ------- 3 2.0 4.0 -1 53
- 0.138 2 5 ping 64 ------- 3 2.0 4.0 -1 53
r 0.138024 5 4 ping 64 ------- 3 2.0 4.0 -1 16
+ 0.138024 4 5 ping 64 ------- 5 4.0 2.0 -1 54
- 0.138024 4 5 ping 64 ------- 5 4.0 2.0 -1 54
r 0.138512 2 5 ping 64 ------- 3 2.0 4.0 -1 33
+ 0.138512 5 4 ping 64 ------- 3 2.0 4.0 -1 33
- 0.138512 5 4 ping 64 ------- 3 2.0 4.0 -1 33
r 0.138536 4 5 ping 64 ------- 5 4.0 2.0 -1 34
+ 0.138536 5 2 ping 64 ------- 5 4.0 2.0 -1 34
- 0.138536 5 2 ping 64 ------- 5 4.0 2.0 -1 34
+ 0.139 2 5 ping 64 ------- 3 2.0 4.0 -1 55
- 0.139 2 5 ping 64 ------- 3 2.0 4.0 -1 55
r 0.139024 5 4 ping 64 ------- 3 2.0 4.0 -1 17
+ 0.139024 4 5 ping 64 ------- 5 4.0 2.0 -1 56
- 0.139024 4 5 ping 64 ------- 5 4.0 2.0 -1 56
r 0.139512 2 5 ping 64 ------- 3 2.0 4.0 -1 35
+ 0.139512 5 4 ping 64 ------- 3 2.0 4.0 -1 35
- 0.139512 5 4 ping 64 ------- 3 2.0 4.0 -1 35
r 0.139536 4 5 ping 64 ------- 5 4.0 2.0 -1 36
+ 0.139536 5 2 ping 64 ------- 5 4.0 2.0 -1 36
- 0.139536 5 2 ping 64 ------- 5 4.0 2.0 -1 36
+ 0.14 2 5 ping 64 ------- 3 2.0 4.0 -1 57
- 0.14 2 5 ping 64 ------- 3 2.0 4.0 -1 57
r 0.140024 5 4 ping 64 ------- 3 2.0 4.0 -1 18
+ 0.140024 4 5 ping 64 ------- 5 4.0 2.0 -1 58
- 0.140024 4 5 ping 64 ------- 5 4.0 2.0 -1 58
r 0.140512 2 5 ping 64 ------- 3 2.0 4.0 -1 37
+ 0.140512 5 4 ping 64 ------- 3 2.0 4.0 -1 37
- 0.140512 5 4 ping 64 ------- 3 2.0 4.0 -1 37
r 0.140536 4 5 ping 64 ------- 5 4.0 2.0 -1 38
+ 0.140536 5 2 ping 64 ------- 5 4.0 2.0 -1 38
- 0.140536 5 2 ping 64 ------- 5 4.0 2.0 -1 38
+ 0.141 2 5 ping 64 ------- 3 2.0 4.0 -1 59
- 0.141 2 5 ping 64 ------- 3 2.0 4.0 -1 59
r 0.141024 5 4 ping 64 ------- 3 2.0 4.0 -1 19
+ 0.141024 4 5 ping 64 ------- 5 4.0 2.0 -1 60
- 0.141024 4 5 ping 64 ------- 5 4.0 2.0 -1 60
r 0.141512 2 5 ping 64 ------- 3 2.0 4.0 -1 39
+ 0.141512 5 4 ping 64 ------- 3 2.0 4.0 -1 39
- 0.141512 5 4 ping 64 ------- 3 2.0 4.0 -1 39
r 0.141536 4 5 ping 64 ------- 5 4.0 2.0 -1 40
+ 0.141536 5 2 ping 64 ------- 5 4.0 2.0 -1 40
- 0.141536 5 2 ping 64 ------- 5 4.0 2.0 -1 40
+ 0.142 2 5 ping 64 ------- 3 2.0 4.0 -1 61
- 0.142 2 5 ping 64 ------- 3 2.0 4.0 -1 61
r 0.142024 5 4 ping 64 ------- 3 2.0 4.0 -1 20
+ 0.142024 4 5 ping 64 ------- 5 4.0 2.0 -1 62
- 0.142024 4 5 ping 64 ------- 5 4.0 2.0 -1 62
r 0.142512 2 5 ping 64 ------- 3 2.0 4.0 -1 41
+ 0.142512 5 4 ping 64 ------- 3 2.0 4.0 -1 41
- 0.142512 5 4 ping 64 ------- 3 2.0 4.0 -1 41
r 0.142536 4 5 ping 64 ------- 5 4.0 2.0 -1 42
+ 0.142536 5 2 ping 64 ------- 5 4.0 2.0 -1 42
- 0.142536 5 2 ping 64 ------- 5 4.0 2.0 -1 42
+ 0.143 2 5 ping 64 ------- 3 2.0 4.0 -1 63
- 0.143 2 5 ping 64 ------- 3 2.0 4.0 -1 63
r 0.143024 5 4 ping 64 ------- 3 2.0 4.0 -1 21
+ 0.143024 4 5 ping 64 ------- 5 4.0 2.0 -1 64
- 0.143024 4 5 ping 64 ------- 5 4.0 2.0 -1 64
r 0.143048 5 2 ping 64 ------- 5 4.0 2.0 -1 22
r 0.143512 2 5 ping 64 ------- 3 2.0 4.0 -1 43
+ 0.143512 5 4 ping 64 ------- 3 2.0 4.0 -1 43
- 0.143512 5 4 ping 64 ------- 3 2.0 4.0 -1 43
r 0.143536 4 5 ping 64 ------- 5 4.0 2.0 -1 44
+ 0.143536 5 2 ping 64 ------- 5 4.0 2.0 -1 44
- 0.143536 5 2 ping 64 ------- 5 4.0 2.0 -1 44
+ 0.144 2 5 ping 64 ------- 3 2.0 4.0 -1 65
- 0.144 2 5 ping 64 ------- 3 2.0 4.0 -1 65
r 0.144024 5 4 ping 64 ------- 3 2.0 4.0 -1 23
+ 0.144024 4 5 ping 64 ------- 5 4.0 2.0 -1 66
- 0.144024 4 5 ping 64 ------- 5 4.0 2.0 -1 66
r 0.144048 5 2 ping 64 ------- 5 4.0 2.0 -1 24
r 0.144512 2 5 ping 64 ------- 3 2.0 4.0 -1 45
+ 0.144512 5 4 ping 64 ------- 3 2.0 4.0 -1 45
- 0.144512 5 4 ping 64 ------- 3 2.0 4.0 -1 45
r 0.144536 4 5 ping 64 ------- 5 4.0 2.0 -1 46
+ 0.144536 5 2 ping 64 ------- 5 4.0 2.0 -1 46
- 0.144536 5 2 ping 64 ------- 5 4.0 2.0 -1 46
+ 0.145 2 5 ping 64 ------- 3 2.0 4.0 -1 67
- 0.145 2 5 ping 64 ------- 3 2.0 4.0 -1 67
r 0.145024 5 4 ping 64 ------- 3 2.0 4.0 -1 25
+ 0.145024 4 5 ping 64 ------- 5 4.0 2.0 -1 68
- 0.145024 4 5 ping 64 ------- 5 4.0 2.0 -1 68
r 0.145048 5 2 ping 64 ------- 5 4.0 2.0 -1 26
r 0.145512 2 5 ping 64 ------- 3 2.0 4.0 -1 47
+ 0.145512 5 4 ping 64 ------- 3 2.0 4.0 -1 47
- 0.145512 5 4 ping 64 ------- 3 2.0 4.0 -1 47
r 0.145536 4 5 ping 64 ------- 5 4.0 2.0 -1 48
+ 0.145536 5 2 ping 64 ------- 5 4.0 2.0 -1 48
- 0.145536 5 2 ping 64 ------- 5 4.0 2.0 -1 48
+ 0.146 2 5 ping 64 ------- 3 2.0 4.0 -1 69
- 0.146 2 5 ping 64 ------- 3 2.0 4.0 -1 69
r 0.146024 5 4 ping 64 ------- 3 2.0 4.0 -1 27
+ 0.146024 4 5 ping 64 ------- 5 4.0 2.0 -1 70
- 0.146024 4 5 ping 64 ------- 5 4.0 2.0 -1 70
r 0.146048 5 2 ping 64 ------- 5 4.0 2.0 -1 28
r 0.146512 2 5 ping 64 ------- 3 2.0 4.0 -1 49
+ 0.146512 5 4 ping 64 ------- 3 2.0 4.0 -1 49
- 0.146512 5 4 ping 64 ------- 3 2.0 4.0 -1 49
r 0.146536 4 5 ping 64 ------- 5 4.0 2.0 -1 50
+ 0.146536 5 2 ping 64 ------- 5 4.0 2.0 -1 50
- 0.146536 5 2 ping 64 ------- 5 4.0 2.0 -1 50
+ 0.147 2 5 ping 64 ------- 3 2.0 4.0 -1 71
- 0.147 2 5 ping 64 ------- 3 2.0 4.0 -1 71
r 0.147024 5 4 ping 64 ------- 3 2.0 4.0 -1 29
+ 0.147024 4 5 ping 64 ------- 5 4.0 2.0 -1 72
- 0.147024 4 5 ping 64 ------- 5 4.0 2.0 -1 72
r 0.147048 5 2 ping 64 ------- 5 4.0 2.0 -1 30
r 0.147512 2 5 ping 64 ------- 3 2.0 4.0 -1 51
+ 0.147512 5 4 ping 64 ------- 3 2.0 4.0 -1 51
- 0.147512 5 4 ping 64 ------- 3 2.0 4.0 -1 51
r 0.147536 4 5 ping 64 ------- 5 4.0 2.0 -1 52
+ 0.147536 5 2 ping 64 ------- 5 4.0 2.0 -1 52
- 0.147536 5 2 ping 64 ------- 5 4.0 2.0 -1 52
+ 0.148 2 5 ping 64 ------- 3 2.0 4.0 -1 73
- 0.148 2 5 ping 64 ------- 3 2.0 4.0 -1 73
r 0.148024 5 4 ping 64 ------- 3 2.0 4.0 -1 31
+ 0.148024 4 5 ping 64 ------- 5 4.0 2.0 -1 74
- 0.148024 4 5 ping 64 ------- 5 4.0 2.0 -1 74
r 0.148048 5 2 ping 64 ------- 5 4.0 2.0 -1 32
r 0.148512 2 5 ping 64 ------- 3 2.0 4.0 -1 53
+ 0.148512 5 4 ping 64 ------- 3 2.0 4.0 -1 53
- 0.148512 5 4 ping 64 ------- 3 2.0 4.0 -1 53
r 0.148536 4 5 ping 64 ------- 5 4.0 2.0 -1 54
+ 0.148536 5 2 ping 64 ------- 5 4.0 2.0 -1 54
- 0.148536 5 2 ping 64 ------- 5 4.0 2.0 -1 54
+ 0.149 2 5 ping 64 ------- 3 2.0 4.0 -1 75
- 0.149 2 5 ping 64 ------- 3 2.0 4.0 -1 75
r 0.149024 5 4 ping 64 ------- 3 2.0 4.0 -1 33
+ 0.149024 4 5 ping 64 ------- 5 4.0 2.0 -1 76
- 0.149024 4 5 ping 64 ------- 5 4.0 2.0 -1 76
r 0.149048 5 2 ping 64 ------- 5 4.0 2.0 -1 34
r 0.149512 2 5 ping 64 ------- 3 2.0 4.0 -1 55
+ 0.149512 5 4 ping 64 ------- 3 2.0 4.0 -1 55
- 0.149512 5 4 ping 64 ------- 3 2.0 4.0 -1 55
r 0.149536 4 5 ping 64 ------- 5 4.0 2.0 -1 56
+ 0.149536 5 2 ping 64 ------- 5 4.0 2.0 -1 56
- 0.149536 5 2 ping 64 ------- 5 4.0 2.0 -1 56
+ 0.15 2 5 ping 64 ------- 3 2.0 4.0 -1 77
- 0.15 2 5 ping 64 ------- 3 2.0 4.0 -1 77
r 0.150024 5 4 ping 64 ------- 3 2.0 4.0 -1 35
+ 0.150024 4 5 ping 64 ------- 5 4.0 2.0 -1 78
- 0.150024 4 5 ping 64 ------- 5 4.0 2.0 -1 78
r 0.150048 5 2 ping 64 ------- 5 4.0 2.0 -1 36
r 0.150512 2 5 ping 64 ------- 3 2.0 4.0 -1 57
+ 0.150512 5 4 ping 64 ------- 3 2.0 4.0 -1 57
- 0.150512 5 4 ping 64 ------- 3 2.0 4.0 -1 57
r 0.150536 4 5 ping 64 ------- 5 4.0 2.0 -1 58
+ 0.150536 5 2 ping 64 ------- 5 4.0 2.0 -1 58
- 0.150536 5 2 ping 64 ------- 5 4.0 2.0 -1 58
+ 0.151 2 5 ping 64 ------- 3 2.0 4.0 -1 79
- 0.151 2 5 ping 64 ------- 3 2.0 4.0 -1 79
r 0.151024 5 4 ping 64 ------- 3 2.0 4.0 -1 37
+ 0.151024 4 5 ping 64 ------- 5 4.0 2.0 -1 80
- 0.151024 4 5 ping 64 ------- 5 4.0 2.0 -1 80
r 0.151048 5 2 ping 64 ------- 5 4.0 2.0 -1 38
r 0.151512 2 5 ping 64 ------- 3 2.0 4.0 -1 59
+ 0.151512 5 4 ping 64 ------- 3 2.0 4.0 -1 59
- 0.151512 5 4 ping 64 ------- 3 2.0 4.0 -1 59
r 0.151536 4 5 ping 64 ------- 5 4.0 2.0 -1 60
+ 0.151536 5 2 ping 64 ------- 5 4.0 2.0 -1 60
- 0.151536 5 2 ping 64 ------- 5 4.0 2.0 -1 60
+ 0.152 2 5 ping 64 ------- 3 2.0 4.0 -1 81
- 0.152 2 5 ping 64 ------- 3 2.0 4.0 -1 81
r 0.152024 5 4 ping 64 ------- 3 2.0 4.0 -1 39
+ 0.152024 4 5 ping 64 ------- 5 4.0 2.0 -1 82
- 0.152024 4 5 ping 64 ------- 5 4.0 2.0 -1 82
r 0.152048 5 2 ping 64 ------- 5 4.0 2.0 -1 40
r 0.152512 2 5 ping 64 ------- 3 2.0 4.0 -1 61
+ 0.152512 5 4 ping 64 ------- 3 2.0 4.0 -1 61
- 0.152512 5 4 ping 64 ------- 3 2.0 4.0 -1 61
r 0.152536 4 5 ping 64 ------- 5 4.0 2.0 -1 62
+ 0.152536 5 2 ping 64 ------- 5 4.0 2.0 -1 62
- 0.152536 5 2 ping 64 ------- 5 4.0 2.0 -1 62
+ 0.153 2 5 ping 64 ------- 3 2.0 4.0 -1 83
- 0.153 2 5 ping 64 ------- 3 2.0 4.0 -1 83
r 0.153024 5 4 ping 64 ------- 3 2.0 4.0 -1 41
+ 0.153024 4 5 ping 64 ------- 5 4.0 2.0 -1 84
- 0.153024 4 5 ping 64 ------- 5 4.0 2.0 -1 84
r 0.153048 5 2 ping 64 ------- 5 4.0 2.0 -1 42
r 0.153512 2 5 ping 64 ------- 3 2.0 4.0 -1 63
+ 0.153512 5 4 ping 64 ------- 3 2.0 4.0 -1 63
- 0.153512 5 4 ping 64 ------- 3 2.0 4.0 -1 63
r 0.153536 4 5 ping 64 ------- 5 4.0 2.0 -1 64
+ 0.153536 5 2 ping 64 ------- 5 4.0 2.0 -1 64
- 0.153536 5 2 ping 64 ------- 5 4.0 2.0 -1 64
+ 0.154 2 5 ping 64 ------- 3 2.0 4.0 -1 85
- 0.154 2 5 ping 64 ------- 3 2.0 4.0 -1 85
r 0.154024 5 4 ping 64 ------- 3 2.0 4.0 -1 43
+ 0.154024 4 5 ping 64 ------- 5 4.0 2.0 -1 86
- 0.154024 4 5 ping 64 ------- 5 4.0 2.0 -1 86
r 0.154048 5 2 ping 64 ------- 5 4.0 2.0 -1 44
r 0.154512 2 5 ping 64 ------- 3 2.0 4.0 -1 65
+ 0.154512 5 4 ping 64 ------- 3 2.0 4.0 -1 65
- 0.154512 5 4 ping 64 ------- 3 2.0 4.0 -1 65
r 0.154536 4 5 ping 64 ------- 5 4.0 2.0 -1 66
+ 0.154536 5 2 ping 64 ------- 5 4.0 2.0 -1 66
- 0.154536 5 2 ping 64 ------- 5 4.0 2.0 -1 66
+ 0.155 2 5 ping 64 ------- 3 2.0 4.0 -1 87
- 0.155 2 5 ping 64 ------- 3 2.0 4.0 -1 87
r 0.155024 5 4 ping 64 ------- 3 2.0 4.0 -1 45
+ 0.155024 4 5 ping 64 ------- 5 4.0 2.0 -1 88
- 0.155024 4 5 ping 64 ------- 5 4.0 2.0 -1 88
r 0.155048 5 2 ping 64 ------- 5 4.0 2.0 -1 46
r 0.155512 2 5 ping 64 ------- 3 2.0 4.0 -1 67
+ 0.155512 5 4 ping 64 ------- 3 2.0 4.0 -1 67
- 0.155512 5 4 ping 64 ------- 3 2.0 4.0 -1 67
r 0.155536 4 5 ping 64 ------- 5 4.0 2.0 -1 68
+ 0.155536 5 2 ping 64 ------- 5 4.0 2.0 -1 68
- 0.155536 5 2 ping 64 ------- 5 4.0 2.0 -1 68
+ 0.156 2 5 ping 64 ------- 3 2.0 4.0 -1 89
- 0.156 2 5 ping 64 ------- 3 2.0 4.0 -1 89
r 0.156024 5 4 ping 64 ------- 3 2.0 4.0 -1 47
+ 0.156024 4 5 ping 64 ------- 5 4.0 2.0 -1 90
- 0.156024 4 5 ping 64 ------- 5 4.0 2.0 -1 90
r 0.156048 5 2 ping 64 ------- 5 4.0 2.0 -1 48
r 0.156512 2 5 ping 64 ------- 3 2.0 4.0 -1 69
+ 0.156512 5 4 ping 64 ------- 3 2.0 4.0 -1 69
- 0.156512 5 4 ping 64 ------- 3 2.0 4.0 -1 69
r 0.156536 4 5 ping 64 ------- 5 4.0 2.0 -1 70
+ 0.156536 5 2 ping 64 ------- 5 4.0 2.0 -1 70
- 0.156536 5 2 ping 64 ------- 5 4.0 2.0 -1 70
+ 0.157 2 5 ping 64 ------- 3 2.0 4.0 -1 91
- 0.157 2 5 ping 64 ------- 3 2.0 4.0 -1 91
r 0.157024 5 4 ping 64 ------- 3 2.0 4.0 -1 49
+ 0.157024 4 5 ping 64 ------- 5 4.0 2.0 -1 92
- 0.157024 4 5 ping 64 ------- 5 4.0 2.0 -1 92
r 0.157048 5 2 ping 64 ------- 5 4.0 2.0 -1 50
r 0.157512 2 5 ping 64 ------- 3 2.0 4.0 -1 71
+ 0.157512 5 4 ping 64 ------- 3 2.0 4.0 -1 71
- 0.157512 5 4 ping 64 ------- 3 2.0 4.0 -1 71
r 0.157536 4 5 ping 64 ------- 5 4.0 2.0 -1 72
+ 0.157536 5 2 ping 64 ------- 5 4.0 2.0 -1 72
- 0.157536 5 2 ping 64 ------- 5 4.0 2.0 -1 72
+ 0.158 2 5 ping 64 ------- 3 2.0 4.0 -1 93
- 0.158 2 5 ping 64 ------- 3 2.0 4.0 -1 93
r 0.158024 5 4 ping 64 ------- 3 2.0 4.0 -1 51
+ 0.158024 4 5 ping 64 ------- 5 4.0 2.0 -1 94
- 0.158024 4 5 ping 64 ------- 5 4.0 2.0 -1 94
r 0.158048 5 2 ping 64 ------- 5 4.0 2.0 -1 52
r 0.158512 2 5 ping 64 ------- 3 2.0 4.0 -1 73
+ 0.158512 5 4 ping 64 ------- 3 2.0 4.0 -1 73
- 0.158512 5 4 ping 64 ------- 3 2.0 4.0 -1 73
r 0.158536 4 5 ping 64 ------- 5 4.0 2.0 -1 74
+ 0.158536 5 2 ping 64 ------- 5 4.0 2.0 -1 74
- 0.158536 5 2 ping 64 ------- 5 4.0 2.0 -1 74
+ 0.159 2 5 ping 64 ------- 3 2.0 4.0 -1 95
- 0.159 2 5 ping 64 ------- 3 2.0 4.0 -1 95
r 0.159024 5 4 ping 64 ------- 3 2.0 4.0 -1 53
+ 0.159024 4 5 ping 64 ------- 5 4.0 2.0 -1 96
- 0.159024 4 5 ping 64 ------- 5 4.0 2.0 -1 96
r 0.159048 5 2 ping 64 ------- 5 4.0 2.0 -1 54
r 0.159512 2 5 ping 64 ------- 3 2.0 4.0 -1 75
+ 0.159512 5 4 ping 64 ------- 3 2.0 4.0 -1 75
- 0.159512 5 4 ping 64 ------- 3 2.0 4.0 -1 75
r 0.159536 4 5 ping 64 ------- 5 4.0 2.0 -1 76
+ 0.159536 5 2 ping 64 ------- 5 4.0 2.0 -1 76
- 0.159536 5 2 ping 64 ------- 5 4.0 2.0 -1 76
+ 0.16 2 5 ping 64 ------- 3 2.0 4.0 -1 97
- 0.16 2 5 ping 64 ------- 3 2.0 4.0 -1 97
r 0.160024 5 4 ping 64 ------- 3 2.0 4.0 -1 55
+ 0.160024 4 5 ping 64 ------- 5 4.0 2.0 -1 98
- 0.160024 4 5 ping 64 ------- 5 4.0 2.0 -1 98
r 0.160048 5 2 ping 64 ------- 5 4.0 2.0 -1 56
r 0.160512 2 5 ping 64 ------- 3 2.0 4.0 -1 77
+ 0.160512 5 4 ping 64 ------- 3 2.0 4.0 -1 77
- 0.160512 5 4 ping 64 ------- 3 2.0 4.0 -1 77
r 0.160536 4 5 ping 64 ------- 5 4.0 2.0 -1 78
+ 0.160536 5 2 ping 64 ------- 5 4.0 2.0 -1 78
- 0.160536 5 2 ping 64 ------- 5 4.0 2.0 -1 78
+ 0.161 2 5 ping 64 ------- 3 2.0 4.0 -1 99
- 0.161 2 5 ping 64 ------- 3 2.0 4.0 -1 99
r 0.161024 5 4 ping 64 ------- 3 2.0 4.0 -1 57
+ 0.161024 4 5 ping 64 ------- 5 4.0 2.0 -1 100
- 0.161024 4 5 ping 64 ------- 5 4.0 2.0 -1 100
r 0.161048 5 2 ping 64 ------- 5 4.0 2.0 -1 58
r 0.161512 2 5 ping 64 ------- 3 2.0 4.0 -1 79
+ 0.161512 5 4 ping 64 ------- 3 2.0 4.0 -1 79
- 0.161512 5 4 ping 64 ------- 3 2.0 4.0 -1 79
r 0.161536 4 5 ping 64 ------- 5 4.0 2.0 -1 80
+ 0.161536 5 2 ping 64 ------- 5 4.0 2.0 -1 80
- 0.161536 5 2 ping 64 ------- 5 4.0 2.0 -1 80
+ 0.162 2 5 ping 64 ------- 3 2.0 4.0 -1 101
- 0.162 2 5 ping 64 ------- 3 2.0 4.0 -1 101
r 0.162024 5 4 ping 64 ------- 3 2.0 4.0 -1 59
+ 0.162024 4 5 ping 64 ------- 5 4.0 2.0 -1 102
- 0.162024 4 5 ping 64 ------- 5 4.0 2.0 -1 102
r 0.162048 5 2 ping 64 ------- 5 4.0 2.0 -1 60
r 0.162512 2 5 ping 64 ------- 3 2.0 4.0 -1 81
+ 0.162512 5 4 ping 64 ------- 3 2.0 4.0 -1 81
- 0.162512 5 4 ping 64 ------- 3 2.0 4.0 -1 81
r 0.162536 4 5 ping 64 ------- 5 4.0 2.0 -1 82
+ 0.162536 5 2 ping 64 ------- 5 4.0 2.0 -1 82
- 0.162536 5 2 ping 64 ------- 5 4.0 2.0 -1 82
+ 0.163 2 5 ping 64 ------- 3 2.0 4.0 -1 103
- 0.163 2 5 ping 64 ------- 3 2.0 4.0 -1 103
r 0.163024 5 4 ping 64 ------- 3 2.0 4.0 -1 61
+ 0.163024 4 5 ping 64 ------- 5 4.0 2.0 -1 104
- 0.163024 4 5 ping 64 ------- 5 4.0 2.0 -1 104
r 0.163048 5 2 ping 64 ------- 5 4.0 2.0 -1 62
r 0.163512 2 5 ping 64 ------- 3 2.0 4.0 -1 83
+ 0.163512 5 4 ping 64 ------- 3 2.0 4.0 -1 83
- 0.163512 5 4 ping 64 ------- 3 2.0 4.0 -1 83
r 0.163536 4 5 ping 64 ------- 5 4.0 2.0 -1 84
+ 0.163536 5 2 ping 64 ------- 5 4.0 2.0 -1 84
- 0.163536 5 2 ping 64 ------- 5 4.0 2.0 -1 84
+ 0.164 2 5 ping 64 ------- 3 2.0 4.0 -1 105
- 0.164 2 5 ping 64 ------- 3 2.0 4.0 -1 105
r 0.164024 5 4 ping 64 ------- 3 2.0 4.0 -1 63
+ 0.164024 4 5 ping 64 ------- 5 4.0 2.0 -1 106
- 0.164024 4 5 ping 64 ------- 5 4.0 2.0 -1 106
r 0.164048 5 2 ping 64 ------- 5 4.0 2.0 -1 64
r 0.164512 2 5 ping 64 ------- 3 2.0 4.0 -1 85
+ 0.164512 5 4 ping 64 ------- 3 2.0 4.0 -1 85
- 0.164512 5 4 ping 64 ------- 3 2.0 4.0 -1 85
r 0.164536 4 5 ping 64 ------- 5 4.0 2.0 -1 86
+ 0.164536 5 2 ping 64 ------- 5 4.0 2.0 -1 86
- 0.164536 5 2 ping 64 ------- 5 4.0 2.0 -1 86
+ 0.165 2 5 ping 64 ------- 3 2.0 4.0 -1 107
- 0.165 2 5 ping 64 ------- 3 2.0 4.0 -1 107
r 0.165024 5 4 ping 64 ------- 3 2.0 4.0 -1 65
+ 0.165024 4 5 ping 64 ------- 5 4.0 2.0 -1 108
- 0.165024 4 5 ping 64 ------- 5 4.0 2.0 -1 108
r 0.165048 5 2 ping 64 ------- 5 4.0 2.0 -1 66
r 0.165512 2 5 ping 64 ------- 3 2.0 4.0 -1 87
+ 0.165512 5 4 ping 64 ------- 3 2.0 4.0 -1 87
- 0.165512 5 4 ping 64 ------- 3 2.0 4.0 -1 87
r 0.165536 4 5 ping 64 ------- 5 4.0 2.0 -1 88
+ 0.165536 5 2 ping 64 ------- 5 4.0 2.0 -1 88
- 0.165536 5 2 ping 64 ------- 5 4.0 2.0 -1 88
+ 0.166 2 5 ping 64 ------- 3 2.0 4.0 -1 109
- 0.166 2 5 ping 64 ------- 3 2.0 4.0 -1 109
r 0.166024 5 4 ping 64 ------- 3 2.0 4.0 -1 67
+ 0.166024 4 5 ping 64 ------- 5 4.0 2.0 -1 110
- 0.166024 4 5 ping 64 ------- 5 4.0 2.0 -1 110
r 0.166048 5 2 ping 64 ------- 5 4.0 2.0 -1 68
r 0.166512 2 5 ping 64 ------- 3 2.0 4.0 -1 89
+ 0.166512 5 4 ping 64 ------- 3 2.0 4.0 -1 89
- 0.166512 5 4 ping 64 ------- 3 2.0 4.0 -1 89
r 0.166536 4 5 ping 64 ------- 5 4.0 2.0 -1 90
+ 0.166536 5 2 ping 64 ------- 5 4.0 2.0 -1 90
- 0.166536 5 2 ping 64 ------- 5 4.0 2.0 -1 90
+ 0.167 2 5 ping 64 ------- 3 2.0 4.0 -1 111
- 0.167 2 5 ping 64 ------- 3 2.0 4.0 -1 111
r 0.167024 5 4 ping 64 ------- 3 2.0 4.0 -1 69
+ 0.167024 4 5 ping 64 ------- 5 4.0 2.0 -1 112
- 0.167024 4 5 ping 64 ------- 5 4.0 2.0 -1 112
r 0.167048 5 2 ping 64 ------- 5 4.0 2.0 -1 70
r 0.167512 2 5 ping 64 ------- 3 2.0 4.0 -1 91
+ 0.167512 5 4 ping 64 ------- 3 2.0 4.0 -1 91
- 0.167512 5 4 ping 64 ------- 3 2.0 4.0 -1 91
r 0.167536 4 5 ping 64 ------- 5 4.0 2.0 -1 92
+ 0.167536 5 2 ping 64 ------- 5 4.0 2.0 -1 92
- 0.167536 5 2 ping 64 ------- 5 4.0 2.0 -1 92
+ 0.168 2 5 ping 64 ------- 3 2.0 4.0 -1 113
- 0.168 2 5 ping 64 ------- 3 2.0 4.0 -1 113
r 0.168024 5 4 ping 64 ------- 3 2.0 4.0 -1 71
+ 0.168024 4 5 ping 64 ------- 5 4.0 2.0 -1 114
- 0.168024 4 5 ping 64 ------- 5 4.0 2.0 -1 114
r 0.168048 5 2 ping 64 ------- 5 4.0 2.0 -1 72
r 0.168512 2 5 ping 64 ------- 3 2.0 4.0 -1 93
+ 0.168512 5 4 ping 64 ------- 3 2.0 4.0 -1 93
- 0.168512 5 4 ping 64 ------- 3 2.0 4.0 -1 93
r 0.168536 4 5 ping 64 ------- 5 4.0 2.0 -1 94
+ 0.168536 5 2 ping 64 ------- 5 4.0 2.0 -1 94
- 0.168536 5 2 ping 64 ------- 5 4.0 2.0 -1 94
+ 0.169 2 5 ping 64 ------- 3 2.0 4.0 -1 115
- 0.169 2 5 ping 64 ------- 3 2.0 4.0 -1 115
r 0.169024 5 4 ping 64 ------- 3 2.0 4.0 -1 73
+ 0.169024 4 5 ping 64 ------- 5 4.0 2.0 -1 116
- 0.169024 4 5 ping 64 ------- 5 4.0 2.0 -1 116
r 0.169048 5 2 ping 64 ------- 5 4.0 2.0 -1 74
r 0.169512 2 5 ping 64 ------- 3 2.0 4.0 -1 95
+ 0.169512 5 4 ping 64 ------- 3 2.0 4.0 -1 95
- 0.169512 5 4 ping 64 ------- 3 2.0 4.0 -1 95
r 0.169536 4 5 ping 64 ------- 5 4.0 2.0 -1 96
+ 0.169536 5 2 ping 64 ------- 5 4.0 2.0 -1 96
- 0.169536 5 2 ping 64 ------- 5 4.0 2.0 -1 96
+ 0.17 2 5 ping 64 ------- 3 2.0 4.0 -1 117
- 0.17 2 5 ping 64 ------- 3 2.0 4.0 -1 117
r 0.170024 5 4 ping 64 ------- 3 2.0 4.0 -1 75
+ 0.170024 4 5 ping 64 ------- 5 4.0 2.0 -1 118
- 0.170024 4 5 ping 64 ------- 5 4.0 2.0 -1 118
r 0.170048 5 2 ping 64 ------- 5 4.0 2.0 -1 76
r 0.170512 2 5 ping 64 ------- 3 2.0 4.0 -1 97
+ 0.170512 5 4 ping 64 ------- 3 2.0 4.0 -1 97
- 0.170512 5 4 ping 64 ------- 3 2.0 4.0 -1 97
r 0.170536 4 5 ping 64 ------- 5 4.0 2.0 -1 98
+ 0.170536 5 2 ping 64 ------- 5 4.0 2.0 -1 98
- 0.170536 5 2 ping 64 ------- 5 4.0 2.0 -1 98
+ 0.171 2 5 ping 64 ------- 3 2.0 4.0 -1 119
- 0.171 2 5 ping 64 ------- 3 2.0 4.0 -1 119
r 0.171024 5 4 ping 64 ------- 3 2.0 4.0 -1 77
+ 0.171024 4 5 ping 64 ------- 5 4.0 2.0 -1 120
- 0.171024 4 5 ping 64 ------- 5 4.0 2.0 -1 120
r 0.171048 5 2 ping 64 ------- 5 4.0 2.0 -1 78
r 0.171512 2 5 ping 64 ------- 3 2.0 4.0 -1 99
+ 0.171512 5 4 ping 64 ------- 3 2.0 4.0 -1 99
- 0.171512 5 4 ping 64 ------- 3 2.0 4.0 -1 99
r 0.171536 4 5 ping 64 ------- 5 4.0 2.0 -1 100
+ 0.171536 5 2 ping 64 ------- 5 4.0 2.0 -1 100
- 0.171536 5 2 ping 64 ------- 5 4.0 2.0 -1 100
+ 0.172 2 5 ping 64 ------- 3 2.0 4.0 -1 121
- 0.172 2 5 ping 64 ------- 3 2.0 4.0 -1 121
r 0.172024 5 4 ping 64 ------- 3 2.0 4.0 -1 79
+ 0.172024 4 5 ping 64 ------- 5 4.0 2.0 -1 122
- 0.172024 4 5 ping 64 ------- 5 4.0 2.0 -1 122
r 0.172048 5 2 ping 64 ------- 5 4.0 2.0 -1 80
r 0.172512 2 5 ping 64 ------- 3 2.0 4.0 -1 101
+ 0.172512 5 4 ping 64 ------- 3 2.0 4.0 -1 101
- 0.172512 5 4 ping 64 ------- 3 2.0 4.0 -1 101
r 0.172536 4 5 ping 64 ------- 5 4.0 2.0 -1 102
+ 0.172536 5 2 ping 64 ------- 5 4.0 2.0 -1 102
- 0.172536 5 2 ping 64 ------- 5 4.0 2.0 -1 102
+ 0.173 2 5 ping 64 ------- 3 2.0 4.0 -1 123
- 0.173 2 5 ping 64 ------- 3 2.0 4.0 -1 123
r 0.173024 5 4 ping 64 ------- 3 2.0 4.0 -1 81
+ 0.173024 4 5 ping 64 ------- 5 4.0 2.0 -1 124
- 0.173024 4 5 ping 64 ------- 5 4.0 2.0 -1 124
r 0.173048 5 2 ping 64 ------- 5 4.0 2.0 -1 82
r 0.173512 2 5 ping 64 ------- 3 2.0 4.0 -1 103
+ 0.173512 5 4 ping 64 ------- 3 2.0 4.0 -1 103
- 0.173512 5 4 ping 64 ------- 3 2.0 4.0 -1 103
r 0.173536 4 5 ping 64 ------- 5 4.0 2.0 -1 104
+ 0.173536 5 2 ping 64 ------- 5 4.0 2.0 -1 104